       N       E                     dE             d eps       ncg     rms          ort
DAV:   1     0.200722390296E+04    0.20072E+04   -0.10885E+05  7560   0.184E+03
DAV:   2    -0.614476484586E+02   -0.20687E+04   -0.19148E+04  7560   0.472E+02
DAV:   3    -0.316712701172E+03   -0.25527E+03   -0.24979E+03  7560   0.184E+02
DAV:   4    -0.324777040379E+03   -0.80643E+01   -0.80179E+01  7560   0.351E+01
DAV:   5    -0.324927828759E+03   -0.15079E+00   -0.15046E+00  7560   0.493E+00
SDA:   6    -0.266205646375E+03    0.58722E+02   -0.15046E+00  7560   0.138E+02 0.000E+00
CGA:   7    -0.268309629370E+03   -0.21040E+01   -0.21104E+01  7560   0.164E+01 0.503E-01
CGA:   8    -0.268588011056E+03   -0.27838E+00   -0.27930E+00  7560   0.570E+00 0.343E-01
CGA:   9    -0.268699466207E+03   -0.11146E+00   -0.11156E+00  7560   0.177E+00 0.231E-01
CGA:  10    -0.268743552176E+03   -0.44086E-01   -0.44059E-01  7560   0.747E-01 0.478E-03
CGA:  11    -0.268760930654E+03   -0.17378E-01   -0.17597E-01  7560   0.384E-01-0.604E-02
CGA:  12    -0.268770967479E+03   -0.10037E-01   -0.10479E-01  7560   0.168E-01-0.460E-02
CGA:  13    -0.268773997054E+03   -0.30296E-02   -0.30296E-02  7560   0.489E-02 0.205E-03
CGA:  14    -0.268775060908E+03   -0.10639E-02   -0.10573E-02  7560   0.121E-02 0.745E-03
CGA:  15    -0.268775289253E+03   -0.22835E-03   -0.24189E-03  7560   0.379E-03 0.423E-03
CGA:  16    -0.268775337402E+03   -0.48149E-04   -0.67612E-04  7560   0.176E-03 0.272E-03
CGA:  17    -0.268775356654E+03   -0.19252E-04   -0.25680E-04  7560   0.932E-04 0.118E-03
CGA:  18    -0.268775369790E+03   -0.13135E-04   -0.15417E-04  7560   0.576E-04 0.716E-04
CGA:  19    -0.268775378406E+03   -0.86164E-05   -0.97888E-05  7560   0.367E-04 0.453E-04
   1 F= -.26877538E+03 E0= -.26877538E+03  d E =-.268775E+03  mag=     0.0000
