       N       E                     dE             d eps       ncg     rms          rms(c)
DAV:   1     0.686870305081E+02    0.68687E+02   -0.88562E+02    48   0.293E+02
DAV:   2     0.338456973381E+02   -0.34841E+02   -0.34824E+02    56   0.609E+01
DAV:   3     0.271032406174E+01   -0.31135E+02   -0.26380E+02    48   0.733E+01
DAV:   4    -0.465531574248E+01   -0.73656E+01   -0.73656E+01    32   0.413E+01
DAV:   5    -0.487435469929E+01   -0.21904E+00   -0.21904E+00    32   0.921E+00    0.827E-01
DAV:   6    -0.266205729028E+01    0.22123E+01   -0.65692E-01    32   0.769E+00    0.683E-01
DAV:   7    -0.266537071913E+01   -0.33134E-02   -0.16827E-02    48   0.150E+00    0.375E-01
DAV:   8    -0.266442695609E+01    0.94376E-03   -0.22893E-03    32   0.600E-01    0.285E-01
DAV:   9    -0.266406649894E+01    0.36046E-03   -0.24386E-03    48   0.543E-01    0.154E-01
DAV:  10    -0.266478317045E+01   -0.71667E-03   -0.25622E-03    32   0.539E-01    0.327E-02
DAV:  11    -0.266531223626E+01   -0.52907E-03   -0.46324E-04    40   0.241E-01    0.376E-02
DAV:  12    -0.266547317298E+01   -0.16094E-03   -0.51330E-03    48   0.571E-01    0.154E-01
DAV:  13    -0.266542691165E+01    0.46261E-04   -0.86198E-04    48   0.337E-01    0.123E-01
DAV:  14    -0.266494850878E+01    0.47840E-03   -0.36229E-03    40   0.482E-01    0.121E-02
DAV:  15    -0.266519526007E+01   -0.24675E-03   -0.29622E-04    32   0.230E-01    0.140E-02
DAV:  16    -0.266524813450E+01   -0.52874E-04   -0.20795E-05    32   0.711E-02    0.100E-02
DAV:  17    -0.266525919462E+01   -0.11060E-04   -0.93654E-06    32   0.442E-02    0.960E-03
DAV:  18    -0.266525495640E+01    0.42382E-05   -0.45026E-05    32   0.691E-02
   1 F= -.26652550E+01 E0= -.26652550E+01  d E =-.266525E+01  mag=     1.0002
       N       E                     dE             d eps       ncg     rms          rms(c)
DAV:   1    -0.266893396755E+01   -0.36748E-02   -0.92284E-02    32   0.329E+00    0.487E-01
DAV:   2    -0.266448957772E+01    0.44444E-02   -0.11423E-02    32   0.114E+00    0.154E-01
DAV:   3    -0.266597335893E+01   -0.14838E-02   -0.27764E-03    32   0.630E-01    0.472E-02
DAV:   4    -0.266562611172E+01    0.34725E-03   -0.46452E-04    48   0.358E-01    0.194E-02
DAV:   5    -0.266569363557E+01   -0.67524E-04   -0.92340E-05    40   0.138E-01    0.130E-02
DAV:   6    -0.266567172382E+01    0.21912E-04   -0.27162E-05    32   0.827E-02    0.113E-02
DAV:   7    -0.266566652498E+01    0.51988E-05   -0.24394E-05    32   0.600E-02
   2 F= -.26656665E+01 E0= -.26656665E+01  d E =-.411569E-03  mag=     1.0000
       N       E                     dE             d eps       ncg     rms          rms(c)
DAV:   1    -0.266587411234E+01   -0.20239E-03   -0.55823E-03    32   0.807E-01    0.118E-01
DAV:   2    -0.266547661460E+01    0.39750E-03   -0.70513E-04    48   0.297E-01    0.387E-02
DAV:   3    -0.266586889971E+01   -0.39229E-03   -0.20750E-04    40   0.189E-01    0.150E-02
DAV:   4    -0.266576221805E+01    0.10668E-03   -0.47381E-05    32   0.112E-01    0.107E-02
DAV:   5    -0.266576186827E+01    0.34978E-06   -0.22459E-05    32   0.541E-02    0.110E-02
DAV:   6    -0.266574957457E+01    0.12294E-04   -0.48511E-06    48   0.360E-02    0.996E-03
DAV:   7    -0.266570831415E+01    0.41260E-04   -0.21784E-05    32   0.605E-02    0.438E-03
DAV:   8    -0.266573976802E+01   -0.31454E-04   -0.93847E-06    32   0.494E-02    0.483E-03
DAV:   9    -0.266573710033E+01    0.26677E-05   -0.18694E-06    32   0.240E-02
   3 F= -.26657371E+01 E0= -.26657371E+01  d E =-.482144E-03  mag=     1.0000
       N       E                     dE             d eps       ncg     rms          rms(c)
DAV:   1    -0.266661746221E+01   -0.87769E-03   -0.22205E-02    32   0.161E+00    0.236E-01
DAV:   2    -0.266531117297E+01    0.13063E-02   -0.27520E-03    32   0.568E-01    0.747E-02
DAV:   3    -0.266600521487E+01   -0.69404E-03   -0.77639E-04    32   0.355E-01    0.225E-02
DAV:   4    -0.266593351056E+01    0.71704E-04   -0.17050E-04    32   0.219E-01    0.884E-03
DAV:   5    -0.266593750380E+01   -0.39932E-05   -0.26477E-05    32   0.777E-02    0.654E-03
DAV:   6    -0.266593047612E+01    0.70277E-05   -0.76171E-06    32   0.466E-02
   4 F= -.26659305E+01 E0= -.26659305E+01  d E =-.675520E-03  mag=     1.0000
       N       E                     dE             d eps       ncg     rms          rms(c)
DAV:   1    -0.266927969156E+01   -0.33422E-02   -0.89120E-02    32   0.323E+00    0.473E-01
DAV:   2    -0.266504015979E+01    0.42395E-02   -0.10830E-02    32   0.111E+00    0.150E-01
DAV:   3    -0.266654583562E+01   -0.15057E-02   -0.26433E-03    32   0.618E-01    0.460E-02
DAV:   4    -0.266621521808E+01    0.33062E-03   -0.44648E-04    32   0.351E-01    0.185E-02
DAV:   5    -0.266627709923E+01   -0.61881E-04   -0.75473E-05    32   0.130E-01    0.983E-03
DAV:   6    -0.266625243316E+01    0.24666E-04   -0.25592E-05    32   0.828E-02    0.798E-03
DAV:   7    -0.266624597685E+01    0.64563E-05   -0.87864E-06    32   0.452E-02
   5 F= -.26662460E+01 E0= -.26662460E+01  d E =-.991020E-03  mag=     1.0000
       N       E                     dE             d eps       ncg     rms          rms(c)
DAV:   1    -0.268026162682E+01   -0.14009E-01   -0.35888E-01    32   0.650E+00    0.950E-01
DAV:   2    -0.266521297001E+01    0.15049E-01   -0.42417E-02    32   0.219E+00    0.300E-01
DAV:   3    -0.266796925062E+01   -0.27563E-02   -0.91686E-03    32   0.110E+00    0.891E-02
DAV:   4    -0.266665795107E+01    0.13113E-02   -0.13319E-03    32   0.609E-01    0.344E-02
DAV:   5    -0.266689515486E+01   -0.23720E-03   -0.25483E-04    32   0.238E-01    0.169E-02
DAV:   6    -0.266687605326E+01    0.19102E-04   -0.77680E-05    32   0.141E-01    0.124E-02
DAV:   7    -0.266687276849E+01    0.32848E-05   -0.20533E-05    32   0.703E-02
   6 F= -.26668728E+01 E0= -.26668728E+01  d E =-.161781E-02  mag=     1.0000
