       N       E                     dE             d eps       ncg     rms          ort
DAV:   1     0.393445100866E+04    0.39345E+04   -0.17978E+05  9792   0.199E+03
DAV:   2     0.100183290155E+03   -0.38343E+04   -0.35743E+04  9792   0.530E+02
DAV:   3    -0.466035341897E+03   -0.56622E+03   -0.52617E+03  9792   0.217E+02
DAV:   4    -0.495449674932E+03   -0.29414E+02   -0.29174E+02  9792   0.503E+01
DAV:   5    -0.495989551608E+03   -0.53988E+00   -0.53840E+00  9792   0.734E+00
SDA:   6    -0.403974744244E+03    0.92015E+02   -0.53840E+00  9792   0.243E+02 0.000E+00
CGA:   7    -0.407553150476E+03   -0.35784E+01   -0.35906E+01  9792   0.287E+01 0.795E-01
CGA:   8    -0.408031957931E+03   -0.47881E+00   -0.48090E+00  9792   0.941E+00 0.700E-01
CGA:   9    -0.408201062963E+03   -0.16911E+00   -0.16994E+00  9792   0.286E+00 0.419E-01
CGA:  10    -0.408268861462E+03   -0.67798E-01   -0.67660E-01  9792   0.115E+00 0.415E-02
CGA:  11    -0.408294999094E+03   -0.26138E-01   -0.26426E-01  9792   0.594E-01-0.992E-02
CGA:  12    -0.408310661685E+03   -0.15663E-01   -0.16882E-01  9792   0.330E-01-0.109E-01
CGA:  13    -0.408316278898E+03   -0.56172E-02   -0.56250E-02  9792   0.108E-01-0.149E-02
CGA:  14    -0.408318484683E+03   -0.22058E-02   -0.21953E-02  9792   0.281E-02 0.105E-02
CGA:  15    -0.408318957769E+03   -0.47309E-03   -0.50988E-03  9792   0.912E-03 0.939E-03
CGA:  16    -0.408319053691E+03   -0.95922E-04   -0.14855E-03  9792   0.434E-03 0.656E-03
CGA:  17    -0.408319086114E+03   -0.32423E-04   -0.54686E-04  9792   0.246E-03 0.308E-03
CGA:  18    -0.408319099713E+03   -0.13599E-04   -0.29134E-04  9792   0.174E-03 0.203E-03
CGA:  19    -0.408319106299E+03   -0.65863E-05   -0.18838E-04  9792   0.130E-03 0.149E-03
CGA:  20    -0.408319109542E+03   -0.32432E-05   -0.13075E-04  9792   0.101E-03 0.114E-03
   1 F= -.40831911E+03 E0= -.40831911E+03  d E =-.408319E+03  mag=    -0.0000
