       N       E                     dE             d eps       ncg     rms          rms(c)
DAV:   1     0.229181823855E+04    0.22918E+04   -0.10668E+05 32184   0.185E+03
DAV:   2     0.679185089645E+02   -0.22239E+04   -0.21050E+04 32016   0.520E+02
DAV:   3    -0.261128569632E+03   -0.32905E+03   -0.31350E+03 32202   0.206E+02
DAV:   4    -0.273172418167E+03   -0.12044E+02   -0.11984E+02 32176   0.401E+01
DAV:   5    -0.273350419308E+03   -0.17800E+00   -0.17775E+00 33560   0.519E+00    0.798E+00
DAV:   6    -0.224715015327E+03    0.48635E+02   -0.19863E+01 30682   0.158E+01    0.106E+01
DAV:   7    -0.224531258795E+03    0.18376E+00   -0.45072E-01 31696   0.299E+00    0.480E+00
DAV:   8    -0.224442589165E+03    0.88670E-01   -0.14097E-01 31758   0.133E+00    0.241E+00
DAV:   9    -0.224426885332E+03    0.15704E-01   -0.78882E-03 32584   0.318E-01    0.215E+00
DAV:  10    -0.224407314856E+03    0.19570E-01   -0.16305E-02 31754   0.491E-01    0.151E+00
DAV:  11    -0.224400792606E+03    0.65222E-02   -0.39157E-03 31680   0.229E-01    0.127E+00
DAV:  12    -0.224394975520E+03    0.58171E-02   -0.39515E-03 31754   0.230E-01    0.951E-01
DAV:  13    -0.224390919795E+03    0.40557E-02   -0.41198E-03 31776   0.235E-01    0.629E-01
DAV:  14    -0.224388258852E+03    0.26609E-02   -0.51378E-03 31746   0.266E-01    0.259E-01
DAV:  15    -0.224387706487E+03    0.55236E-03   -0.91746E-04 31720   0.112E-01    0.126E-01
DAV:  16    -0.224387612685E+03    0.93802E-04   -0.66308E-05 26734   0.313E-02    0.882E-02
DAV:  17    -0.224387528379E+03    0.84307E-04   -0.65014E-05 29792   0.331E-02    0.396E-02
DAV:  18    -0.224387501917E+03    0.26462E-04   -0.14090E-05 16820   0.151E-02    0.160E-02
DAV:  19    -0.224387483886E+03    0.18031E-04   -0.27910E-06 16648   0.708E-03    0.128E-02
DAV:  20    -0.224387489270E+03   -0.53832E-05   -0.99424E-07 16456   0.448E-03
   1 F= -.22438749E+03 E0= -.22438749E+03  d E =-.224387E+03  mag=     0.0000
