       N       E                     dE             d eps       ncg     rms          rms(c)
DAV:   1     0.593221497512E+04    0.59322E+04   -0.24377E+05 44472   0.198E+03
DAV:   2     0.363165178129E+03   -0.55690E+04   -0.52183E+04 42664   0.561E+02
DAV:   3    -0.548118693619E+03   -0.91128E+03   -0.82384E+03 43552   0.235E+02
DAV:   4    -0.602586665169E+03   -0.54468E+02   -0.53931E+02 44104   0.564E+01
DAV:   5    -0.603478538057E+03   -0.89187E+00   -0.88937E+00 46376   0.791E+00    0.130E+01
DAV:   6    -0.491960162835E+03    0.11152E+03   -0.48406E+01 42768   0.167E+01    0.174E+01
DAV:   7    -0.491556520871E+03    0.40364E+00   -0.10656E+00 43072   0.318E+00    0.797E+00
DAV:   8    -0.491327663740E+03    0.22886E+00   -0.36424E-01 43660   0.146E+00    0.408E+00
DAV:   9    -0.491286486037E+03    0.41178E-01   -0.21650E-02 44136   0.365E-01    0.352E+00
DAV:  10    -0.491244260705E+03    0.42225E-01   -0.26463E-02 43128   0.436E-01    0.271E+00
DAV:  11    -0.491226836925E+03    0.17424E-01   -0.84800E-03 43480   0.234E-01    0.231E+00
DAV:  12    -0.491203996478E+03    0.22840E-01   -0.19616E-02 43096   0.368E-01    0.158E+00
DAV:  13    -0.491193938229E+03    0.10058E-01   -0.87358E-03 43128   0.238E-01    0.114E+00
DAV:  14    -0.491188933199E+03    0.50050E-02   -0.35812E-03 43088   0.152E-01    0.830E-01
DAV:  15    -0.491183934839E+03    0.49984E-02   -0.75085E-03 43112   0.227E-01    0.357E-01
DAV:  16    -0.491182388624E+03    0.15462E-02   -0.29849E-03 43240   0.140E-01    0.973E-02
DAV:  17    -0.491182323884E+03    0.64740E-04   -0.64960E-05 39320   0.239E-02    0.991E-02
DAV:  18    -0.491182294591E+03    0.29293E-04   -0.29133E-06 24728   0.720E-03    0.874E-02
DAV:  19    -0.491182215578E+03    0.79013E-04   -0.40001E-06 22872   0.648E-03    0.749E-02
DAV:  20    -0.491182048741E+03    0.16684E-03   -0.21505E-05 26416   0.153E-02    0.321E-02
DAV:  21    -0.491181956478E+03    0.92263E-04   -0.16755E-05 23424   0.106E-02    0.131E-02
DAV:  22    -0.491181938415E+03    0.18063E-04   -0.13559E-06 21936   0.392E-03    0.645E-03
DAV:  23    -0.491181931919E+03    0.64963E-05   -0.35219E-07 22104   0.228E-03
   1 F= -.49118193E+03 E0= -.49118193E+03  d E =-.491182E+03  mag=     1.0000
       N       E                     dE             d eps       ncg     rms          rms(c)
DAV:   1    -0.491178512412E+03    0.34260E-02   -0.17689E-01 50144   0.244E+00    0.312E-01
DAV:   2    -0.491182457576E+03   -0.39452E-02   -0.34310E-02 42636   0.506E-01    0.178E-01
DAV:   3    -0.491182741462E+03   -0.28389E-03   -0.13560E-03 44568   0.128E-01    0.912E-02
DAV:   4    -0.491182434142E+03    0.30732E-03   -0.10331E-04 43144   0.297E-02    0.512E-02
DAV:   5    -0.491182254032E+03    0.18011E-03   -0.39765E-05 37880   0.327E-02    0.228E-02
DAV:   6    -0.491182253061E+03    0.97151E-06   -0.16075E-05 28536   0.146E-02
   2 F= -.49118225E+03 E0= -.49118225E+03  d E =-.321142E-03  mag=     1.0000
       N       E                     dE             d eps       ncg     rms          rms(c)
DAV:   1    -0.491182201505E+03    0.52527E-04   -0.26810E-03 50160   0.298E-01    0.395E-02
DAV:   2    -0.491182288150E+03   -0.86644E-04   -0.53063E-04 43256   0.634E-02    0.227E-02
DAV:   3    -0.491182320885E+03   -0.32736E-04   -0.19439E-05 28496   0.161E-02    0.119E-02
DAV:   4    -0.491182281102E+03    0.39783E-04   -0.22495E-06 21312   0.492E-03    0.708E-03
DAV:   5    -0.491182257071E+03    0.24031E-04   -0.12334E-06 21600   0.506E-03    0.322E-03
DAV:   6    -0.491182260224E+03   -0.31538E-05   -0.60706E-07 21984   0.280E-03
   3 F= -.49118226E+03 E0= -.49118226E+03  d E =-.328305E-03  mag=     1.0000
       N       E                     dE             d eps       ncg     rms          rms(c)
DAV:   1    -0.491181472660E+03    0.78441E-03   -0.92355E-02 45292   0.133E+00    0.147E-01
DAV:   2    -0.491182618489E+03   -0.11458E-02   -0.97610E-03 42056   0.279E-01    0.866E-02
DAV:   3    -0.491182685127E+03   -0.66638E-04   -0.30104E-04 44440   0.577E-02    0.408E-02
DAV:   4    -0.491182603977E+03    0.81150E-04   -0.21975E-05 29928   0.149E-02    0.253E-02
DAV:   5    -0.491182554816E+03    0.49161E-04   -0.13322E-05 24272   0.185E-02    0.940E-03
DAV:   6    -0.491182564873E+03   -0.10057E-04   -0.68551E-06 22320   0.835E-03    0.523E-03
DAV:   7    -0.491182571318E+03   -0.64453E-05   -0.15267E-06 22128   0.443E-03
   4 F= -.49118257E+03 E0= -.49118257E+03  d E =-.311094E-03  mag=     1.0000
       N       E                     dE             d eps       ncg     rms          rms(c)
DAV:   1    -0.491179656589E+03    0.29083E-02   -0.26418E-01 45152   0.225E+00    0.248E-01
DAV:   2    -0.491182840668E+03   -0.31841E-02   -0.27916E-02 41852   0.471E-01    0.146E-01
DAV:   3    -0.491182969036E+03   -0.12837E-03   -0.86001E-04 44500   0.976E-02    0.687E-02
DAV:   4    -0.491182821625E+03    0.14741E-03   -0.63930E-05 35400   0.254E-02    0.426E-02
DAV:   5    -0.491182733233E+03    0.88392E-04   -0.39926E-05 37104   0.305E-02    0.157E-02
DAV:   6    -0.491182752046E+03   -0.18813E-04   -0.14516E-05 27432   0.129E-02    0.835E-03
DAV:   7    -0.491182756503E+03   -0.44567E-05   -0.50646E-06 21584   0.778E-03
   5 F= -.49118276E+03 E0= -.49118276E+03  d E =-.496278E-03  mag=     1.0000
       N       E                     dE             d eps       ncg     rms          rms(c)
DAV:   1    -0.491181764211E+03    0.98784E-03   -0.92346E-02 45592   0.139E+00    0.153E-01
DAV:   2    -0.491182955093E+03   -0.11909E-02   -0.10776E-02 41836   0.283E-01    0.836E-02
DAV:   3    -0.491182935504E+03    0.19589E-04   -0.34314E-04 43992   0.607E-02    0.389E-02
DAV:   4    -0.491182995760E+03   -0.60256E-04   -0.23588E-05 29564   0.125E-02    0.242E-02
DAV:   5    -0.491183019648E+03   -0.23888E-04   -0.93161E-06 24384   0.174E-02    0.107E-02
DAV:   6    -0.491183024150E+03   -0.45020E-05   -0.70710E-06 22660   0.884E-03
   6 F= -.49118302E+03 E0= -.49118302E+03  d E =-.267647E-03  mag=     1.0000
