       N       E                     dE             d eps       ncg     rms          rms(c)
DAV:   1     0.148643365015E+03    0.14864E+03   -0.19741E+03    64   0.454E+02
DAV:   2     0.728246792783E+02   -0.75819E+02   -0.75547E+02    64   0.109E+02
DAV:   3     0.339768020893E+02   -0.38848E+02   -0.37231E+02    64   0.776E+01
DAV:   4     0.427855750587E+01   -0.29698E+02   -0.29038E+02    88   0.398E+01
DAV:   5    -0.338923616822E+01   -0.76678E+01   -0.76523E+01    60   0.279E+01    0.232E-01
DAV:   6    -0.354959452458E+01   -0.16036E+00   -0.16150E+00    48   0.560E+00    0.199E-01
DAV:   7    -0.355984784822E+01   -0.10253E-01   -0.90901E-02    88   0.136E+00    0.103E-01
DAV:   8    -0.355978224594E+01    0.65602E-04   -0.34561E-04    68   0.132E-01    0.768E-02
DAV:   9    -0.355988604712E+01   -0.10380E-03   -0.10130E-04    72   0.721E-02    0.513E-02
DAV:  10    -0.355993368294E+01   -0.47636E-04   -0.31425E-05    52   0.422E-02    0.362E-02
DAV:  11    -0.355995557453E+01   -0.21892E-04   -0.47246E-06    44   0.176E-02    0.306E-02
DAV:  12    -0.355997747253E+01   -0.21898E-04   -0.36598E-06    48   0.151E-02    0.256E-02
DAV:  13    -0.356001706918E+01   -0.39597E-04   -0.91087E-06    44   0.234E-02    0.172E-02
DAV:  14    -0.356002403527E+01   -0.69661E-05   -0.15483E-06    48   0.106E-02
   1 F= -.35600240E+01 E0= -.35600240E+01  d E =-.356002E+01  mag=    -0.0000
