       N       E                     dE             d eps       ncg     rms          rms(c)
DAV:   1     0.218045995219E+04    0.21805E+04   -0.97226E+04 30056   0.186E+03
DAV:   2     0.858342514637E+02   -0.20946E+04   -0.19696E+04 29480   0.525E+02
DAV:   3    -0.241677448054E+03   -0.32751E+03   -0.31615E+03 30924   0.212E+02
DAV:   4    -0.255309080839E+03   -0.13632E+02   -0.13548E+02 30800   0.440E+01
DAV:   5    -0.255517898438E+03   -0.20882E+00   -0.20845E+00 32240   0.594E+00    0.760E+00
DAV:   6    -0.211566172768E+03    0.43952E+02   -0.19366E+01 29498   0.163E+01    0.980E+00
DAV:   7    -0.211384390502E+03    0.18178E+00   -0.47048E-01 29736   0.315E+00    0.436E+00
DAV:   8    -0.211300074852E+03    0.84316E-01   -0.12750E-01 30368   0.134E+00    0.245E+00
DAV:   9    -0.211282832395E+03    0.17242E-01   -0.86710E-03 30288   0.348E-01    0.213E+00
DAV:  10    -0.211264067322E+03    0.18765E-01   -0.13347E-02 30096   0.464E-01    0.156E+00
DAV:  11    -0.211254564522E+03    0.95028E-02   -0.66845E-03 30344   0.317E-01    0.120E+00
DAV:  12    -0.211248347306E+03    0.62172E-02   -0.43985E-03 30096   0.259E-01    0.884E-01
DAV:  13    -0.211245643743E+03    0.27036E-02   -0.15007E-03 30312   0.152E-01    0.701E-01
DAV:  14    -0.211242108700E+03    0.35350E-02   -0.48123E-03 29606   0.276E-01    0.353E-01
DAV:  15    -0.211240898827E+03    0.12099E-02   -0.20461E-03 30330   0.176E-01    0.141E-01
DAV:  16    -0.211240646578E+03    0.25225E-03   -0.21885E-04 30322   0.570E-02    0.741E-02
DAV:  17    -0.211240545081E+03    0.10150E-03   -0.36285E-05 25170   0.248E-02    0.417E-02
DAV:  18    -0.211240498577E+03    0.46505E-04   -0.20442E-05 18502   0.204E-02    0.184E-02
DAV:  19    -0.211240482556E+03    0.16021E-04   -0.34988E-06 15864   0.862E-03    0.176E-02
DAV:  20    -0.211240465104E+03    0.17451E-04   -0.29317E-06 15798   0.850E-03    0.706E-03
DAV:  21    -0.211240455156E+03    0.99488E-05   -0.16231E-06 15726   0.656E-03
   1 F= -.21124046E+03 E0= -.21124046E+03  d E =-.211240E+03  mag=    -0.0000
