       N       E                     dE             d eps       ncg     rms          rms(c)
DAV:   1     0.467005455450E+04    0.46701E+04   -0.16465E+05 39042   0.209E+03
DAV:   2     0.401403597273E+03   -0.42687E+04   -0.40418E+04 40014   0.612E+02
DAV:   3    -0.344125975519E+03   -0.74553E+03   -0.66456E+03 39930   0.255E+02
DAV:   4    -0.404563929401E+03   -0.60438E+02   -0.59403E+02 42039   0.738E+01
DAV:   5    -0.406528655639E+03   -0.19647E+01   -0.19538E+01 44676   0.151E+01    0.104E+01
DAV:   6    -0.331221055402E+03    0.75308E+02   -0.35109E+01 39780   0.175E+01    0.136E+01
DAV:   7    -0.330911281155E+03    0.30977E+00   -0.92780E-01 43518   0.386E+00    0.632E+00
DAV:   8    -0.330749741064E+03    0.16154E+00   -0.28642E-01 43110   0.161E+00    0.342E+00
DAV:   9    -0.330714412731E+03    0.35328E-01   -0.20696E-02 42792   0.448E-01    0.299E+00
DAV:  10    -0.330682292606E+03    0.32120E-01   -0.18313E-02 41139   0.453E-01    0.228E+00
DAV:  11    -0.330670931123E+03    0.11361E-01   -0.42385E-03 42267   0.208E-01    0.203E+00
DAV:  12    -0.330647052084E+03    0.23879E-01   -0.23972E-02 41652   0.505E-01    0.129E+00
DAV:  13    -0.330641587968E+03    0.54641E-02   -0.33294E-03 43113   0.185E-01    0.105E+00
DAV:  14    -0.330635665070E+03    0.59229E-02   -0.46806E-03 41049   0.216E-01    0.708E-01
DAV:  15    -0.330631217850E+03    0.44472E-02   -0.65937E-03 40977   0.261E-01    0.297E-01
DAV:  16    -0.330629786047E+03    0.14318E-02   -0.23338E-03 41193   0.153E-01    0.859E-02
DAV:  17    -0.330629604095E+03    0.18195E-03   -0.12841E-04 44460   0.359E-02    0.574E-02
DAV:  18    -0.330629559067E+03    0.45028E-04   -0.21404E-06 22077   0.716E-03    0.494E-02
DAV:  19    -0.330629544740E+03    0.14327E-04   -0.67886E-07 20808   0.390E-03    0.467E-02
DAV:  20    -0.330629445505E+03    0.99235E-04   -0.65189E-06 23730   0.120E-02    0.256E-02
DAV:  21    -0.330629400510E+03    0.44995E-04   -0.43268E-06 20754   0.688E-03    0.197E-02
DAV:  22    -0.330629357715E+03    0.42795E-04   -0.10504E-06 20724   0.527E-03    0.115E-02
DAV:  23    -0.330629346125E+03    0.11590E-04   -0.43948E-07 20706   0.276E-03    0.681E-03
DAV:  24    -0.330629325325E+03    0.20800E-04   -0.16731E-07 20634   0.237E-03    0.338E-03
DAV:  25    -0.330629318567E+03    0.67578E-05   -0.14381E-07 20562   0.165E-03
   1 F= -.33062932E+03 E0= -.33062932E+03  d E =-.330629E+03  mag=     0.0000
