       N       E                     dE             d eps       ncg     rms          rms(c)
DAV:   1     0.635536158373E+04    0.63554E+04   -0.24145E+05 43464   0.203E+03
DAV:   2     0.452424405259E+03   -0.59029E+04   -0.55657E+04 43112   0.584E+02
DAV:   3    -0.519387334077E+03   -0.97181E+03   -0.86579E+03 42564   0.243E+02
DAV:   4    -0.586722747293E+03   -0.67335E+02   -0.66373E+02 44200   0.659E+01
DAV:   5    -0.588821496471E+03   -0.20987E+01   -0.20889E+01 49160   0.131E+01    0.130E+01
DAV:   6    -0.477526462413E+03    0.11130E+03   -0.49292E+01 42832   0.170E+01    0.176E+01
DAV:   7    -0.477118122709E+03    0.40834E+00   -0.11782E+00 44724   0.354E+00    0.800E+00
DAV:   8    -0.476880315966E+03    0.23781E+00   -0.42778E-01 45752   0.162E+00    0.409E+00
DAV:   9    -0.476836742832E+03    0.43573E-01   -0.25388E-02 46352   0.411E-01    0.358E+00
DAV:  10    -0.476796006675E+03    0.40736E-01   -0.23427E-02 44912   0.425E-01    0.277E+00
DAV:  11    -0.476777167296E+03    0.18839E-01   -0.89214E-03 45168   0.249E-01    0.238E+00
DAV:  12    -0.476751571455E+03    0.25596E-01   -0.22382E-02 45056   0.401E-01    0.162E+00
DAV:  13    -0.476742275330E+03    0.92961E-02   -0.69089E-03 44928   0.219E-01    0.124E+00
DAV:  14    -0.476736559356E+03    0.57160E-02   -0.36838E-03 44904   0.157E-01    0.925E-01
DAV:  15    -0.476730529296E+03    0.60301E-02   -0.84535E-03 44592   0.246E-01    0.417E-01
DAV:  16    -0.476728272158E+03    0.22571E-02   -0.45039E-03 45352   0.178E-01    0.931E-02
DAV:  17    -0.476728175908E+03    0.96250E-04   -0.16473E-04 48984   0.379E-02    0.950E-02
DAV:  18    -0.476728134477E+03    0.41431E-04   -0.70551E-06 25560   0.103E-02    0.744E-02
DAV:  19    -0.476728112831E+03    0.21646E-04   -0.15385E-06 22440   0.444E-03    0.700E-02
DAV:  20    -0.476727979468E+03    0.13336E-03   -0.84212E-06 24200   0.126E-02    0.352E-02
DAV:  21    -0.476727888880E+03    0.90588E-04   -0.12887E-05 23016   0.976E-03    0.158E-02
DAV:  22    -0.476727847758E+03    0.41121E-04   -0.28957E-06 21560   0.529E-03    0.752E-03
DAV:  23    -0.476727837803E+03    0.99557E-05   -0.10885E-06 21432   0.353E-03
   1 F= -.47672784E+03 E0= -.47672784E+03  d E =-.476728E+03  mag=     1.0000
