       N       E                     dE             d eps       ncg     rms          rms(c)
DAV:   1     0.294140234616E+04    0.29414E+04   -0.12871E+05 37096   0.200E+03
DAV:   2     0.995842480968E+02   -0.28418E+04   -0.26906E+04 37080   0.560E+02
DAV:   3    -0.301374389529E+03   -0.40096E+03   -0.36478E+03 36080   0.220E+02
DAV:   4    -0.320427555723E+03   -0.19053E+02   -0.18879E+02 36272   0.481E+01
DAV:   5    -0.320752412332E+03   -0.32486E+00   -0.32400E+00 39824   0.661E+00    0.944E+00
DAV:   6    -0.259978773627E+03    0.60774E+02   -0.24061E+01 36128   0.166E+01    0.130E+01
DAV:   7    -0.259771286026E+03    0.20749E+00   -0.49745E-01 36304   0.300E+00    0.565E+00
DAV:   8    -0.259658077401E+03    0.11321E+00   -0.17857E-01 36280   0.143E+00    0.289E+00
DAV:   9    -0.259637113136E+03    0.20964E-01   -0.10629E-02 38040   0.356E-01    0.252E+00
DAV:  10    -0.259613386471E+03    0.23727E-01   -0.18920E-02 36256   0.516E-01    0.179E+00
DAV:  11    -0.259605338645E+03    0.80478E-02   -0.46212E-03 36288   0.244E-01    0.152E+00
DAV:  12    -0.259596212008E+03    0.91266E-02   -0.80796E-03 36232   0.325E-01    0.104E+00
DAV:  13    -0.259591502896E+03    0.47091E-02   -0.51305E-03 36272   0.254E-01    0.675E-01
DAV:  14    -0.259589005476E+03    0.24974E-02   -0.36985E-03 36216   0.219E-01    0.339E-01
DAV:  15    -0.259587976723E+03    0.10288E-02   -0.20131E-03 36256   0.163E-01    0.105E-01
DAV:  16    -0.259587900559E+03    0.76164E-04   -0.10461E-04 36904   0.379E-02    0.795E-02
DAV:  17    -0.259587863120E+03    0.37439E-04   -0.24552E-06 20064   0.721E-03    0.619E-02
DAV:  18    -0.259587834215E+03    0.28905E-04   -0.19668E-06 19856   0.595E-03    0.496E-02
DAV:  19    -0.259587772599E+03    0.61617E-04   -0.87709E-06 19792   0.134E-02    0.101E-02
DAV:  20    -0.259587745637E+03    0.26962E-04   -0.26845E-06 19488   0.654E-03    0.988E-03
DAV:  21    -0.259587749942E+03   -0.43058E-05   -0.55345E-07 19344   0.326E-03
   1 F= -.25958775E+03 E0= -.25958775E+03  d E =-.259588E+03  mag=     0.0000
