       N       E                     dE             d eps       ncg     rms          rms(c)
DAV:   1     0.422278661816E+04    0.42228E+04   -0.17280E+05 34144   0.179E+03
DAV:   2     0.244736101625E+03   -0.39781E+04   -0.36696E+04 31632   0.510E+02
DAV:   3    -0.443177933431E+03   -0.68791E+03   -0.66392E+03 34774   0.218E+02
DAV:   4    -0.473583236943E+03   -0.30405E+02   -0.30228E+02 36768   0.473E+01
DAV:   5    -0.473960991240E+03   -0.37775E+00   -0.37729E+00 35440   0.581E+00    0.995E+00
DAV:   6    -0.397027370467E+03    0.76934E+02   -0.33167E+01 33864   0.157E+01    0.124E+01
DAV:   7    -0.396706888539E+03    0.32048E+00   -0.81126E-01 35096   0.282E+00    0.528E+00
DAV:   8    -0.396544892223E+03    0.16200E+00   -0.22757E-01 34730   0.124E+00    0.347E+00
DAV:   9    -0.396488042190E+03    0.56850E-01   -0.45859E-02 34544   0.619E-01    0.239E+00
DAV:  10    -0.396465199758E+03    0.22842E-01   -0.11919E-02 34728   0.324E-01    0.188E+00
DAV:  11    -0.396444071103E+03    0.21129E-01   -0.18313E-02 34656   0.398E-01    0.122E+00
DAV:  12    -0.396439090040E+03    0.49811E-02   -0.20758E-03 35464   0.126E-01    0.102E+00
DAV:  13    -0.396431107622E+03    0.79824E-02   -0.63134E-03 34784   0.234E-01    0.632E-01
DAV:  14    -0.396426349192E+03    0.47584E-02   -0.68261E-03 34640   0.243E-01    0.236E-01
DAV:  15    -0.396425148713E+03    0.12005E-02   -0.12946E-03 35032   0.103E-01    0.771E-02
DAV:  16    -0.396424790709E+03    0.35800E-03   -0.11941E-04 32536   0.324E-02    0.296E-02
DAV:  17    -0.396424636655E+03    0.15405E-03   -0.26934E-05 25680   0.191E-02    0.109E-02
DAV:  18    -0.396424575474E+03    0.61181E-04   -0.89406E-06 19070   0.138E-02    0.146E-02
DAV:  19    -0.396424531896E+03    0.43578E-04   -0.77052E-06 20064   0.183E-02    0.164E-02
DAV:  20    -0.396424544514E+03   -0.12619E-04   -0.67014E-05 32828   0.526E-02    0.176E-02
DAV:  21    -0.396424589326E+03   -0.44812E-04   -0.22592E-04 35568   0.921E-02    0.181E-02
DAV:  22    -0.396424662853E+03   -0.73527E-04   -0.29732E-04 37832   0.854E-02    0.156E-02
DAV:  23    -0.396424699518E+03   -0.36666E-04   -0.11132E-04 30280   0.278E-02    0.122E-02
DAV:  24    -0.396424739432E+03   -0.39913E-04   -0.96851E-06 20544   0.888E-03    0.107E-02
DAV:  25    -0.396424739973E+03   -0.54192E-06   -0.24736E-07 17496   0.205E-03
   1 F= -.39642474E+03 E0= -.39642474E+03  d E =-.396425E+03  mag=    32.0000
