       N       E                     dE             d eps       ncg     rms          rms(c)
DAV:   1     0.868780361067E+02    0.86878E+02   -0.77851E+03  7632   0.119E+03
DAV:   2    -0.594553302621E+01   -0.92824E+02   -0.92375E+02  7655   0.318E+02
DAV:   3    -0.926836737813E+01   -0.33228E+01   -0.33203E+01  8947   0.748E+01
DAV:   4    -0.932137304800E+01   -0.53006E-01   -0.53000E-01  8483   0.102E+01
DAV:   5    -0.932288155248E+01   -0.15085E-02   -0.15085E-02  8820   0.173E+00    0.685E-01
DAV:   6    -0.841199677020E+01    0.91088E+00   -0.34106E-01  7571   0.838E+00    0.507E-01
DAV:   7    -0.840734183845E+01    0.46549E-02   -0.19222E-02  7673   0.222E+00    0.315E-01
DAV:   8    -0.840947219982E+01   -0.21304E-02   -0.26577E-02  8123   0.342E+00    0.179E-01
DAV:   9    -0.840832829957E+01    0.11439E-02   -0.16783E-03  7964   0.830E-01    0.956E-02
DAV:  10    -0.840744283072E+01    0.88547E-03   -0.22376E-03  9951   0.916E-01    0.213E-02
DAV:  11    -0.840742964473E+01    0.13186E-04   -0.11089E-03  9312   0.206E-01    0.123E-02
DAV:  12    -0.840740860942E+01    0.21035E-04   -0.25112E-04  8069   0.972E-02    0.233E-03
DAV:  13    -0.840742558177E+01   -0.16972E-04   -0.11059E-05  7625   0.311E-02    0.130E-03
DAV:  14    -0.840745449804E+01   -0.28916E-04   -0.76101E-06  7048   0.335E-02    0.715E-04
DAV:  15    -0.840746003204E+01   -0.55340E-05   -0.77182E-06  7580   0.343E-02
   1 F= -.84074600E+01 E0= -.84070741E+01  d E =-.840746E+01  mag=    -0.0001
       N       E                     dE             d eps       ncg     rms          rms(c)
DAV:   1    -0.841553420990E+01   -0.80797E-02   -0.23290E-01  8408   0.105E+01    0.582E-01
DAV:   2    -0.841017224524E+01    0.53620E-02   -0.72687E-03  7589   0.165E+00    0.296E-01
DAV:   3    -0.840768225979E+01    0.24900E-02   -0.25447E-03  7928   0.100E+00    0.311E-02
DAV:   4    -0.840744958715E+01    0.23267E-03   -0.93227E-05  7568   0.165E-01    0.295E-03
DAV:   5    -0.840739152738E+01    0.58060E-04   -0.32708E-05  7700   0.852E-02    0.156E-03
DAV:   6    -0.840738379550E+01    0.77319E-05   -0.10910E-05  6027   0.339E-02
   2 F= -.84073838E+01 E0= -.84069972E+01  d E =0.762365E-04  mag=    -0.0001
       N       E                     dE             d eps       ncg     rms          rms(c)
DAV:   1    -0.840989013425E+01   -0.24986E-02   -0.65143E-02  8408   0.549E+00    0.311E-01
DAV:   2    -0.840842948577E+01    0.14606E-02   -0.20789E-03  7584   0.882E-01    0.158E-01
DAV:   3    -0.840768296954E+01    0.74652E-03   -0.75330E-04  7811   0.537E-01    0.170E-02
DAV:   4    -0.840771858405E+01   -0.35615E-04   -0.43708E-05  7568   0.930E-02    0.282E-03
DAV:   5    -0.840773654571E+01   -0.17962E-04   -0.44035E-05  7858   0.567E-02    0.262E-03
DAV:   6    -0.840774616647E+01   -0.96208E-05   -0.14731E-05  7538   0.373E-02
   3 F= -.84077462E+01 E0= -.84073599E+01  d E =-.286134E-03  mag=    -0.0001
