       N       E                     dE             d eps       ncg     rms          rms(c)
DAV:   1     0.436444863541E+03    0.43644E+03   -0.26042E+04 17128   0.148E+03
DAV:   2    -0.403322215530E+02   -0.47678E+03   -0.46120E+03 20636   0.378E+02
DAV:   3    -0.821038970236E+02   -0.41772E+02   -0.41660E+02 18044   0.105E+02
DAV:   4    -0.826185082488E+02   -0.51461E+00   -0.51406E+00 18752   0.130E+01
DAV:   5    -0.826219262669E+02   -0.34180E-02   -0.34177E-02 17868   0.116E+00    0.227E+00
DAV:   6    -0.705018357208E+02    0.12120E+02   -0.46140E+00 16236   0.124E+01    0.232E+00
DAV:   7    -0.704355724530E+02    0.66263E-01   -0.15075E-01 18236   0.238E+00    0.119E+00
DAV:   8    -0.704129870431E+02    0.22585E-01   -0.42845E-02 16644   0.995E-01    0.549E-01
DAV:   9    -0.704109272075E+02    0.20598E-02   -0.10872E-03 16420   0.188E-01    0.466E-01
DAV:  10    -0.704097179191E+02    0.12093E-02   -0.79226E-04 17044   0.148E-01    0.375E-01
DAV:  11    -0.704081998804E+02    0.15180E-02   -0.43100E-03 16284   0.341E-01    0.163E-01
DAV:  12    -0.704080332054E+02    0.16667E-03   -0.61213E-04 16616   0.131E-01    0.875E-02
DAV:  13    -0.704080984446E+02   -0.65239E-04   -0.36672E-04 16764   0.100E-01    0.264E-02
DAV:  14    -0.704081799936E+02   -0.81549E-04   -0.55108E-05 12912   0.401E-02    0.359E-03
DAV:  15    -0.704081923101E+02   -0.12317E-04   -0.15081E-06  8248   0.916E-03    0.186E-03
DAV:  16    -0.704081982000E+02   -0.58899E-05   -0.58430E-07  8208   0.501E-03
   1 F= -.70408198E+02 E0= -.70408198E+02  d E =-.704082E+02  mag=    -0.0000
