       N       E                     dE             d eps       ncg     rms          rms(c)
DAV:   1     0.485527180642E+04    0.48553E+04   -0.21717E+05 46672   0.176E+03
DAV:   2     0.564418470277E+02   -0.47988E+04   -0.44137E+04 45768   0.485E+02
DAV:   3    -0.620793571108E+03   -0.67724E+03   -0.65059E+03 47616   0.202E+02
DAV:   4    -0.648026349260E+03   -0.27233E+02   -0.27019E+02 50080   0.422E+01
DAV:   5    -0.648426208370E+03   -0.39986E+00   -0.39894E+00 50712   0.540E+00    0.120E+01
DAV:   6    -0.535995879821E+03    0.11243E+03   -0.39659E+01 47824   0.157E+01    0.150E+01
DAV:   7    -0.535616785479E+03    0.37909E+00   -0.10658E+00 48992   0.344E+00    0.732E+00
DAV:   8    -0.535438318062E+03    0.17847E+00   -0.24136E-01 50848   0.223E+00    0.531E+00
DAV:   9    -0.535382496109E+03    0.55822E-01   -0.70527E-02 53824   0.974E-01    0.414E+00
DAV:  10    -0.535363587736E+03    0.18908E-01   -0.57526E-02 49936   0.143E+00    0.368E+00
DAV:  11    -0.535331558031E+03    0.32030E-01   -0.23204E-02 50240   0.631E-01    0.306E+00
DAV:  12    -0.535314864359E+03    0.16694E-01   -0.88225E-03 49480   0.313E-01    0.267E+00
DAV:  13    -0.535309664321E+03    0.52000E-02   -0.26664E-03 50768   0.308E-01    0.260E+00
DAV:  14    -0.535304110705E+03    0.55536E-02   -0.15254E-03 50800   0.180E-01    0.247E+00
DAV:  15    -0.535293707134E+03    0.10404E-01   -0.31275E-03 49216   0.171E-01    0.223E+00
DAV:  16    -0.535290225716E+03    0.34814E-02   -0.57139E-04 49784   0.102E-01    0.215E+00
DAV:  17    -0.535279543523E+03    0.10682E-01   -0.35270E-03 49072   0.173E-01    0.186E+00
DAV:  18    -0.535277475925E+03    0.20676E-02   -0.31113E-04 49112   0.685E-02    0.181E+00
DAV:  19    -0.535272472596E+03    0.50033E-02   -0.10278E-03 49504   0.105E-01    0.165E+00
DAV:  20    -0.535266458584E+03    0.60140E-02   -0.18898E-03 48928   0.131E-01    0.144E+00
DAV:  21    -0.535263431563E+03    0.30270E-02   -0.62907E-04 49360   0.771E-02    0.133E+00
DAV:  22    -0.535259397670E+03    0.40339E-02   -0.11243E-03 48848   0.967E-02    0.116E+00
DAV:  23    -0.535256594655E+03    0.28030E-02   -0.72627E-04 49336   0.787E-02    0.103E+00
DAV:  24    -0.535253114587E+03    0.34801E-02   -0.12790E-03 48848   0.100E-01    0.839E-01
DAV:  25    -0.535250260068E+03    0.28545E-02   -0.12070E-03 49200   0.101E-01    0.666E-01
DAV:  26    -0.535247044155E+03    0.32159E-02   -0.24987E-03 48832   0.140E-01    0.406E-01
DAV:  27    -0.535245141727E+03    0.19024E-02   -0.18853E-03 49312   0.122E-01    0.198E-01
DAV:  28    -0.535244551035E+03    0.59069E-03   -0.41607E-04 49760   0.603E-02    0.979E-02
DAV:  29    -0.535244433758E+03    0.11728E-03   -0.27561E-05 36456   0.160E-02    0.803E-02
DAV:  30    -0.535244316900E+03    0.11686E-03   -0.14346E-05 26664   0.130E-02    0.613E-02
DAV:  31    -0.535244182217E+03    0.13468E-03   -0.49322E-05 41872   0.212E-02    0.336E-02
DAV:  32    -0.535244140835E+03    0.41382E-04   -0.65410E-06 25752   0.908E-03    0.260E-02
DAV:  33    -0.535243975485E+03    0.16535E-03   -0.28611E-05 34432   0.232E-02    0.304E-02
DAV:  34    -0.535243933941E+03    0.41544E-04   -0.26680E-05 33256   0.181E-02    0.449E-02
DAV:  35    -0.535243923742E+03    0.10199E-04   -0.17253E-05 32472   0.228E-02    0.578E-02
DAV:  36    -0.535243924930E+03   -0.11878E-05   -0.80212E-05 45584   0.555E-02
   1 F= -.53524392E+03 E0= -.53523964E+03  d E =-.535244E+03  mag=    44.0000
       N       E                     dE             d eps       ncg     rms          rms(c)
DAV:   1    -0.535254651805E+03   -0.10728E-01   -0.46519E-01 54560   0.313E+00    0.107E+00
DAV:   2    -0.535250423083E+03    0.42287E-02   -0.77609E-02 47424   0.847E-01    0.708E-01
DAV:   3    -0.535245199930E+03    0.52232E-02   -0.43485E-03 51064   0.340E-01    0.326E-01
DAV:   4    -0.535245073002E+03    0.12693E-03   -0.34760E-03 55360   0.235E-01    0.645E-01
DAV:   5    -0.535245628751E+03   -0.55575E-03   -0.14816E-03 50000   0.231E-01    0.740E-01
DAV:   6    -0.535244527504E+03    0.11012E-02   -0.10158E-03 52040   0.172E-01    0.366E-01
DAV:   7    -0.535244835673E+03   -0.30817E-03   -0.12454E-03 53192   0.176E-01    0.260E-01
DAV:   8    -0.535244919821E+03   -0.84147E-04   -0.65352E-04 50800   0.147E-01    0.172E-01
DAV:   9    -0.535244447205E+03    0.47262E-03   -0.66658E-04 48456   0.936E-02    0.234E-01
DAV:  10    -0.535244239692E+03    0.20751E-03   -0.35005E-04 48592   0.130E-01    0.194E-01
DAV:  11    -0.535244035371E+03    0.20432E-03   -0.40558E-04 46296   0.678E-02    0.163E-01
DAV:  12    -0.535243907172E+03    0.12820E-03   -0.15646E-04 47288   0.873E-02    0.103E-01
DAV:  13    -0.535243933977E+03   -0.26805E-04   -0.20113E-04 43496   0.448E-02    0.529E-02
DAV:  14    -0.535243874438E+03    0.59540E-04   -0.23767E-05 35248   0.289E-02    0.401E-02
DAV:  15    -0.535243911173E+03   -0.36735E-04   -0.35995E-05 26680   0.181E-02    0.295E-02
DAV:  16    -0.535243977658E+03   -0.66485E-04   -0.79066E-06 24080   0.163E-02    0.172E-02
DAV:  17    -0.535243980251E+03   -0.25933E-05   -0.22094E-06 23816   0.691E-03
   2 F= -.53524398E+03 E0= -.53523970E+03  d E =-.553212E-04  mag=    44.0000
       N       E                     dE             d eps       ncg     rms          rms(c)
DAV:   1    -0.535247407578E+03   -0.34299E-02   -0.11997E-01 54532   0.159E+00    0.521E-01
DAV:   2    -0.535242542671E+03    0.48649E-02   -0.19338E-02 47340   0.429E-01    0.353E-01
DAV:   3    -0.535244229338E+03   -0.16867E-02   -0.11273E-03 49608   0.148E-01    0.169E-01
DAV:   4    -0.535244385571E+03   -0.15623E-03   -0.34333E-04 51976   0.100E-01    0.149E-01
DAV:   5    -0.535244263751E+03    0.12182E-03   -0.43029E-04 48936   0.111E-01    0.244E-01
DAV:   6    -0.535244295384E+03   -0.31633E-04   -0.54884E-05 44624   0.345E-02    0.219E-01
DAV:   7    -0.535244137659E+03    0.15772E-03   -0.19288E-04 39720   0.407E-02    0.982E-02
DAV:   8    -0.535244265213E+03   -0.12755E-03   -0.18535E-04 45320   0.515E-02    0.176E-01
DAV:   9    -0.535244350157E+03   -0.84944E-04   -0.11731E-04 47032   0.697E-02    0.101E-01
DAV:  10    -0.535244462678E+03   -0.11252E-03   -0.91009E-05 42008   0.534E-02    0.677E-02
DAV:  11    -0.535244563125E+03   -0.10045E-03   -0.30465E-05 36008   0.342E-02    0.702E-02
DAV:  12    -0.535244590317E+03   -0.27192E-04   -0.34624E-05 33080   0.255E-02    0.278E-02
DAV:  13    -0.535244587435E+03    0.28815E-05   -0.21836E-05 24976   0.146E-02
   3 F= -.53524459E+03 E0= -.53524031E+03  d E =-.662505E-03  mag=    44.0000
       N       E                     dE             d eps       ncg     rms          rms(c)
DAV:   1    -0.535244736932E+03   -0.14662E-03   -0.44669E-03 54380   0.307E-01    0.104E-01
DAV:   2    -0.535244038180E+03    0.69875E-03   -0.72244E-04 48480   0.970E-02    0.882E-02
DAV:   3    -0.535244254078E+03   -0.21590E-03   -0.70116E-05 45520   0.531E-02    0.536E-02
DAV:   4    -0.535244450506E+03   -0.19643E-03   -0.11547E-04 42224   0.472E-02    0.169E-01
DAV:   5    -0.535244502987E+03   -0.52482E-04   -0.47465E-05 41880   0.405E-02    0.157E-01
DAV:   6    -0.535244504041E+03   -0.10539E-05   -0.21843E-05 35664   0.279E-02
   4 F= -.53524450E+03 E0= -.53524018E+03  d E =-.579111E-03  mag=    44.0000
       N       E                     dE             d eps       ncg     rms          rms(c)
DAV:   1    -0.535245136125E+03   -0.63314E-03   -0.22673E-02 54544   0.694E-01    0.235E-01
DAV:   2    -0.535243583528E+03    0.15526E-02   -0.36766E-03 47896   0.195E-01    0.166E-01
DAV:   3    -0.535244300275E+03   -0.71675E-03   -0.28974E-04 51104   0.785E-02    0.104E-01
DAV:   4    -0.535244273852E+03    0.26423E-04   -0.41301E-04 46968   0.933E-02    0.175E-01
DAV:   5    -0.535244260082E+03    0.13770E-04   -0.38955E-05 40584   0.226E-02    0.169E-01
DAV:   6    -0.535244415397E+03   -0.15531E-03   -0.65414E-05 39752   0.467E-02    0.120E-01
DAV:   7    -0.535244393317E+03    0.22080E-04   -0.85671E-05 43080   0.545E-02    0.133E-01
DAV:   8    -0.535244369845E+03    0.23472E-04   -0.46666E-05 41432   0.323E-02    0.136E-01
DAV:   9    -0.535244358585E+03    0.11260E-04   -0.52851E-05 36056   0.303E-02    0.678E-02
DAV:  10    -0.535244446680E+03   -0.88095E-04   -0.51497E-05 37840   0.347E-02    0.922E-02
DAV:  11    -0.535244492289E+03   -0.45609E-04   -0.86078E-05 40016   0.414E-02    0.537E-02
DAV:  12    -0.535244495769E+03   -0.34796E-05   -0.35746E-05 35752   0.343E-02
   5 F= -.53524450E+03 E0= -.53524022E+03  d E =-.570839E-03  mag=    44.0000
       N       E                     dE             d eps       ncg     rms          rms(c)
DAV:   1    -0.535244540768E+03   -0.48479E-04   -0.33834E-03 54088   0.267E-01    0.979E-02
DAV:   2    -0.535244907631E+03   -0.36686E-03   -0.59589E-04 50984   0.121E-01    0.995E-02
DAV:   3    -0.535244689562E+03    0.21807E-03   -0.14666E-04 46168   0.578E-02    0.872E-02
DAV:   4    -0.535244755330E+03   -0.65768E-04   -0.31643E-04 44072   0.738E-02    0.176E-01
DAV:   5    -0.535244720268E+03    0.35062E-04   -0.10259E-04 42888   0.556E-02    0.933E-02
DAV:   6    -0.535244684312E+03    0.35956E-04   -0.55723E-05 39072   0.346E-02    0.654E-02
DAV:   7    -0.535244661131E+03    0.23181E-04   -0.17391E-05 31816   0.233E-02    0.643E-02
DAV:   8    -0.535244594690E+03    0.66441E-04   -0.19705E-05 29464   0.189E-02    0.293E-02
DAV:   9    -0.535244617406E+03   -0.22716E-04   -0.91646E-06 29824   0.220E-02    0.411E-02
DAV:  10    -0.535244628874E+03   -0.11468E-04   -0.63864E-06 24060   0.108E-02    0.343E-02
DAV:  11    -0.535244600143E+03    0.28731E-04   -0.47391E-06 24380   0.150E-02    0.290E-02
DAV:  12    -0.535244591142E+03    0.90017E-05   -0.32312E-06 23856   0.148E-02
   6 F= -.53524459E+03 E0= -.53524030E+03  d E =-.666212E-03  mag=    44.0000
       N       E                     dE             d eps       ncg     rms          rms(c)
DAV:   1    -0.535241214516E+03    0.33856E-02   -0.18278E-01 54340   0.227E+00    0.279E-01
DAV:   2    -0.535245275107E+03   -0.40606E-02   -0.34701E-02 47240   0.444E-01    0.183E-01
DAV:   3    -0.535245504717E+03   -0.22961E-03   -0.12226E-03 51592   0.159E-01    0.139E-01
DAV:   4    -0.535245497367E+03    0.73501E-05   -0.18911E-04 47568   0.525E-02    0.136E-01
DAV:   5    -0.535245288859E+03    0.20851E-03   -0.23790E-04 46208   0.981E-02    0.119E-01
DAV:   6    -0.535245258340E+03    0.30519E-04   -0.15108E-04 44816   0.742E-02    0.125E-01
DAV:   7    -0.535245246098E+03    0.12243E-04   -0.83922E-05 41928   0.380E-02    0.124E-01
DAV:   8    -0.535245237427E+03    0.86714E-05   -0.20970E-05 36536   0.308E-02
   7 F= -.53524524E+03 E0= -.53524092E+03  d E =-.646285E-03  mag=    44.0000
