       N       E                     dE             d eps       ncg     rms          rms(c)
DAV:   1     0.289110092789E+04    0.28911E+04   -0.11881E+05 40424   0.203E+03
DAV:   2     0.141320638840E+03   -0.27498E+04   -0.25932E+04 40704   0.578E+02
DAV:   3    -0.264727566631E+03   -0.40605E+03   -0.36614E+03 39744   0.229E+02
DAV:   4    -0.283836826449E+03   -0.19109E+02   -0.18968E+02 40224   0.502E+01
DAV:   5    -0.284124454620E+03   -0.28763E+00   -0.28712E+00 43304   0.669E+00    0.942E+00
DAV:   6    -0.229240752901E+03    0.54884E+02   -0.22264E+01 39960   0.166E+01    0.131E+01
DAV:   7    -0.229055383999E+03    0.18537E+00   -0.43555E-01 40680   0.297E+00    0.584E+00
DAV:   8    -0.228946868151E+03    0.10852E+00   -0.17558E-01 40208   0.147E+00    0.290E+00
DAV:   9    -0.228927070948E+03    0.19797E-01   -0.10369E-02 41416   0.374E-01    0.247E+00
DAV:  10    -0.228904042210E+03    0.23029E-01   -0.19356E-02 40168   0.551E-01    0.173E+00
DAV:  11    -0.228900058129E+03    0.39841E-02   -0.15656E-03 41512   0.153E-01    0.161E+00
DAV:  12    -0.228890077251E+03    0.99809E-02   -0.99241E-03 40176   0.383E-01    0.103E+00
DAV:  13    -0.228885759651E+03    0.43176E-02   -0.45303E-03 40256   0.251E-01    0.693E-01
DAV:  14    -0.228883530693E+03    0.22290E-02   -0.30602E-03 40168   0.208E-01    0.386E-01
DAV:  15    -0.228882281271E+03    0.12494E-02   -0.27965E-03 40256   0.203E-01    0.881E-02
DAV:  16    -0.228882241464E+03    0.39807E-04   -0.11661E-04 40136   0.435E-02    0.736E-02
DAV:  17    -0.228882216874E+03    0.24591E-04   -0.13171E-06 22472   0.579E-03    0.671E-02
DAV:  18    -0.228882160562E+03    0.56312E-04   -0.36244E-06 22344   0.923E-03    0.488E-02
DAV:  19    -0.228882135654E+03    0.24908E-04   -0.12609E-06 22144   0.470E-03    0.401E-02
DAV:  20    -0.228882125313E+03    0.10342E-04   -0.15077E-07 22000   0.241E-03    0.298E-02
DAV:  21    -0.228882102740E+03    0.22573E-04   -0.54922E-08 21496   0.194E-03    0.200E-02
DAV:  22    -0.228882067026E+03    0.35714E-04   -0.69231E-08 21072   0.222E-03    0.881E-03
DAV:  23    -0.228882060321E+03    0.67054E-05   -0.29811E-08 20800   0.865E-04
   1 F= -.22888206E+03 E0= -.22888206E+03  d E =-.228882E+03  mag=    -0.0000
