       N       E                     dE             d eps       ncg     rms          rms(c)
DAV:   1     0.963237327769E+04    0.96324E+04   -0.41371E+05 53344   0.170E+03
DAV:   2     0.380366828363E+03   -0.92520E+04   -0.85067E+04 50496   0.480E+02
DAV:   3    -0.103620946940E+04   -0.14166E+04   -0.13568E+04 56000   0.201E+02
DAV:   4    -0.108977954095E+04   -0.53570E+02   -0.53275E+02 57056   0.406E+01
DAV:   5    -0.109036661906E+04   -0.58708E+00   -0.58663E+00 57664   0.456E+00    0.164E+01
DAV:   6    -0.901050427979E+03    0.18932E+03   -0.72219E+01 54272   0.147E+01    0.211E+01
DAV:   7    -0.900314682628E+03    0.73575E+00   -0.16103E+00 55680   0.270E+00    0.958E+00
DAV:   8    -0.899928477423E+03    0.38621E+00   -0.54132E-01 55744   0.123E+00    0.557E+00
DAV:   9    -0.899838671974E+03    0.89805E-01   -0.43793E-02 55200   0.382E-01    0.451E+00
DAV:  10    -0.899774468887E+03    0.64203E-01   -0.29009E-02 56576   0.324E-01    0.363E+00
DAV:  11    -0.899712599919E+03    0.61869E-01   -0.50195E-02 56288   0.420E-01    0.243E+00
DAV:  12    -0.899687676832E+03    0.24923E-01   -0.15656E-02 56384   0.230E-01    0.182E+00
DAV:  13    -0.899685194662E+03    0.24822E-02   -0.37290E-04 57088   0.367E-02    0.176E+00
DAV:  14    -0.899673308895E+03    0.11886E-01   -0.53247E-03 56384   0.147E-01    0.133E+00
DAV:  15    -0.899657904999E+03    0.15404E-01   -0.23087E-02 56384   0.285E-01    0.526E-01
DAV:  16    -0.899654489838E+03    0.34152E-02   -0.43337E-03 55648   0.118E-01    0.199E-01
DAV:  17    -0.899653530185E+03    0.95965E-03   -0.57650E-04 57152   0.430E-02    0.719E-02
DAV:  18    -0.899653320521E+03    0.20966E-03   -0.68275E-05 52832   0.151E-02    0.302E-02
DAV:  19    -0.899653125232E+03    0.19529E-03   -0.22282E-05 39232   0.981E-03    0.526E-03
DAV:  20    -0.899653090649E+03    0.34584E-04   -0.43225E-06 29440   0.430E-03    0.343E-03
DAV:  21    -0.899653070696E+03    0.19953E-04   -0.74980E-07 29440   0.196E-03    0.478E-03
DAV:  22    -0.899653066327E+03    0.43683E-05   -0.14963E-07 29440   0.155E-03
   1 F= -.89965307E+03 E0= -.89965307E+03  d E =-.899653E+03  mag=    88.0000
