       N       E                     dE             d eps       ncg     rms          rms(c)
DAV:   1     0.708975085312E+03    0.70898E+03   -0.31766E+04 40448   0.179E+03
DAV:   2    -0.164852521444E+01   -0.71062E+03   -0.66690E+03 39720   0.534E+02
DAV:   3    -0.751938431687E+02   -0.73545E+02   -0.72534E+02 44672   0.179E+02
DAV:   4    -0.768094035998E+02   -0.16156E+01   -0.16134E+01 43792   0.286E+01
DAV:   5    -0.768308313701E+02   -0.21428E-01   -0.21427E-01 44784   0.315E+00    0.479E+00
DAV:   6    -0.632798762985E+02    0.13551E+02   -0.49202E+00 40032   0.157E+01    0.615E+00
DAV:   7    -0.632184220287E+02    0.61454E-01   -0.10697E-01 44408   0.259E+00    0.240E+00
DAV:   8    -0.631891597534E+02    0.29262E-01   -0.32173E-02 42976   0.125E+00    0.167E+00
DAV:   9    -0.631776752290E+02    0.11485E-01   -0.78043E-03 45392   0.671E-01    0.114E+00
DAV:  10    -0.631721657771E+02    0.55095E-02   -0.29650E-03 44840   0.423E-01    0.828E-01
DAV:  11    -0.631691418380E+02    0.30239E-02   -0.17410E-03 45208   0.319E-01    0.589E-01
DAV:  12    -0.631672035432E+02    0.19383E-02   -0.11827E-03 45128   0.260E-01    0.393E-01
DAV:  13    -0.631654057158E+02    0.17978E-02   -0.23861E-03 44752   0.376E-01    0.113E-01
DAV:  14    -0.631651201664E+02    0.28555E-03   -0.31346E-04 45328   0.134E-01    0.193E-02
DAV:  15    -0.631650673196E+02    0.52847E-04   -0.55222E-06 25448   0.197E-02    0.103E-02
DAV:  16    -0.631650498321E+02    0.17488E-04   -0.11371E-06 21624   0.962E-03    0.706E-03
DAV:  17    -0.631650325154E+02    0.17317E-04   -0.17208E-06 20656   0.110E-02    0.152E-03
DAV:  18    -0.631650258581E+02    0.66572E-05   -0.70553E-07 20288   0.566E-03
   1 F= -.63165026E+02 E0= -.63165026E+02  d E =-.631650E+02  mag=     0.0000
