       N       E                     dE             d eps       ncg     rms          rms(c)
DAV:   1     0.314019099983E+04    0.31402E+04   -0.10400E+05 36312   0.209E+03
DAV:   2     0.304405052537E+03   -0.28358E+04   -0.26493E+04 38128   0.621E+02
DAV:   3    -0.240006623020E+03   -0.54441E+03   -0.51999E+03 37856   0.278E+02
DAV:   4    -0.278227571248E+03   -0.38221E+02   -0.37800E+02 40496   0.749E+01
DAV:   5    -0.279301254405E+03   -0.10737E+01   -0.10693E+01 40840   0.146E+01    0.525E+01
DAV:   6    -0.203889972495E+03    0.75411E+02   -0.95767E+01 46408   0.636E+01    0.548E+01
DAV:   7    -0.207398882351E+03   -0.35089E+01   -0.22262E+01 37974   0.176E+01    0.413E+01
DAV:   8    -0.206920067756E+03    0.47881E+00   -0.53707E+00 43456   0.166E+01    0.196E+01
DAV:   9    -0.205251026657E+03    0.16690E+01   -0.51394E+00 39136   0.179E+01    0.138E+01
DAV:  10    -0.207642221332E+03   -0.23912E+01   -0.16488E+00 39298   0.106E+01    0.825E-01
DAV:  11    -0.207660418783E+03   -0.18197E-01   -0.15438E-01 38674   0.183E+00    0.696E-01
DAV:  12    -0.207663720024E+03   -0.33012E-02   -0.82569E-03 44718   0.432E-01    0.522E-01
DAV:  13    -0.207661748643E+03    0.19714E-02   -0.13973E-02 39350   0.457E-01    0.280E-01
DAV:  14    -0.207662789902E+03   -0.10413E-02   -0.16324E-03 42260   0.300E-01    0.200E-01
DAV:  15    -0.207663744791E+03   -0.95489E-03   -0.97155E-04 40548   0.134E-01    0.618E-02
DAV:  16    -0.207662881645E+03    0.86315E-03   -0.23112E-04 40102   0.696E-02    0.448E-02
DAV:  17    -0.207662946931E+03   -0.65285E-04   -0.12485E-05 21978   0.245E-02    0.157E-02
DAV:  18    -0.207663052037E+03   -0.10511E-03   -0.83400E-06 20676   0.151E-02    0.862E-03
DAV:  19    -0.207663006787E+03    0.45250E-04   -0.23026E-06 20540   0.855E-03    0.415E-03
DAV:  20    -0.207662988208E+03    0.18579E-04   -0.73550E-07 20456   0.679E-03    0.314E-03
DAV:  21    -0.207662986799E+03    0.14088E-05   -0.37799E-07 20390   0.323E-03
   1 F= -.20766299E+03 E0= -.20766299E+03  d E =-.207663E+03  mag=    -0.0000
