       N       E                     dE             d eps       ncg     rms          rms(c)
DAV:   1     0.197216294614E+04    0.19722E+04   -0.95615E+04 43600   0.180E+03
DAV:   2    -0.371926528330E+02   -0.20094E+04   -0.18451E+04 43104   0.488E+02
DAV:   3    -0.297647948094E+03   -0.26046E+03   -0.25579E+03 45000   0.194E+02
DAV:   4    -0.306682927259E+03   -0.90350E+01   -0.89809E+01 47632   0.385E+01
DAV:   5    -0.306839515853E+03   -0.15659E+00   -0.15625E+00 47880   0.531E+00    0.740E+00
DAV:   6    -0.256171074850E+03    0.50668E+02   -0.18339E+01 44184   0.163E+01    0.895E+00
DAV:   7    -0.255980461601E+03    0.19061E+00   -0.47815E-01 46792   0.306E+00    0.391E+00
DAV:   8    -0.255883079495E+03    0.97382E-01   -0.13968E-01 47096   0.144E+00    0.251E+00
DAV:   9    -0.255844934901E+03    0.38145E-01   -0.38193E-02 46200   0.780E-01    0.159E+00
DAV:  10    -0.255833848184E+03    0.11087E-01   -0.58648E-03 46928   0.321E-01    0.126E+00
DAV:  11    -0.255826562142E+03    0.72860E-02   -0.38251E-03 45784   0.258E-01    0.972E-01
DAV:  12    -0.255823762830E+03    0.27993E-02   -0.97691E-04 47200   0.121E-01    0.836E-01
DAV:  13    -0.255819485351E+03    0.42775E-02   -0.26508E-03 45600   0.213E-01    0.584E-01
DAV:  14    -0.255815153377E+03    0.43320E-02   -0.79717E-03 45656   0.368E-01    0.161E-01
DAV:  15    -0.255814619948E+03    0.53343E-03   -0.66272E-04 47376   0.101E-01    0.715E-02
DAV:  16    -0.255814425284E+03    0.19466E-03   -0.75730E-05 43416   0.352E-02    0.290E-02
DAV:  17    -0.255814365441E+03    0.59843E-04   -0.99887E-06 28056   0.146E-02    0.158E-02
DAV:  18    -0.255814357106E+03    0.83351E-05   -0.23924E-06 25024   0.711E-03
   1 F= -.25581436E+03 E0= -.25581436E+03  d E =-.255814E+03  mag=    -0.0000
