       N       E                     dE             d eps       ncg     rms          rms(c)
DAV:   1     0.571991355782E+04    0.57199E+04   -0.20223E+05 44028   0.191E+03
DAV:   2     0.450092682267E+03   -0.52698E+04   -0.48827E+04 44676   0.549E+02
DAV:   3    -0.458695179433E+03   -0.90879E+03   -0.83258E+03 44712   0.233E+02
DAV:   4    -0.515680779484E+03   -0.56986E+02   -0.56098E+02 49656   0.611E+01
DAV:   5    -0.517034615096E+03   -0.13538E+01   -0.13489E+01 50028   0.108E+01    0.117E+01
DAV:   6    -0.422658497819E+03    0.94376E+02   -0.35544E+01 46932   0.155E+01    0.152E+01
DAV:   7    -0.422282654959E+03    0.37584E+00   -0.93391E-01 49944   0.314E+00    0.680E+00
DAV:   8    -0.422086436830E+03    0.19622E+00   -0.28527E-01 49596   0.161E+00    0.436E+00
DAV:   9    -0.422047316744E+03    0.39120E-01   -0.27886E-02 50580   0.582E-01    0.355E+00
DAV:  10    -0.422012413980E+03    0.34903E-01   -0.40775E-02 49068   0.437E-01    0.304E+00
DAV:  11    -0.422004372847E+03    0.80411E-02   -0.35218E-03 48684   0.402E-01    0.283E+00
DAV:  12    -0.421994935609E+03    0.94372E-02   -0.61924E-03 51132   0.186E-01    0.262E+00
DAV:  13    -0.421981455169E+03    0.13480E-01   -0.58118E-03 48984   0.272E-01    0.232E+00
DAV:  14    -0.421968319381E+03    0.13136E-01   -0.51293E-03 49416   0.226E-01    0.196E+00
DAV:  15    -0.421958605344E+03    0.97140E-02   -0.36226E-03 49908   0.166E-01    0.167E+00
DAV:  16    -0.421955782306E+03    0.28230E-02   -0.41297E-04 49272   0.682E-02    0.159E+00
DAV:  17    -0.421951268655E+03    0.45137E-02   -0.92020E-04 49788   0.931E-02    0.142E+00
DAV:  18    -0.421943969431E+03    0.72992E-02   -0.32397E-03 49212   0.161E-01    0.113E+00
DAV:  19    -0.421939595845E+03    0.43736E-02   -0.17326E-03 49908   0.117E-01    0.922E-01
DAV:  20    -0.421938813860E+03    0.78198E-03   -0.10333E-04 45756   0.353E-02    0.891E-01
DAV:  21    -0.421936863447E+03    0.19504E-02   -0.45071E-04 49440   0.624E-02    0.775E-01
DAV:  22    -0.421932355079E+03    0.45084E-02   -0.37754E-03 49584   0.175E-01    0.437E-01
DAV:  23    -0.421929911359E+03    0.24437E-02   -0.28742E-03 49680   0.148E-01    0.164E-01
DAV:  24    -0.421929378464E+03    0.53289E-03   -0.33294E-04 49656   0.523E-02    0.820E-02
DAV:  25    -0.421929286077E+03    0.92388E-04   -0.10498E-05 31608   0.105E-02    0.752E-02
DAV:  26    -0.421929286032E+03    0.44689E-07   -0.16431E-06 24600   0.512E-03
   1 F= -.42192929E+03 E0= -.42192717E+03  d E =-.421929E+03  mag=    44.0000
