       N       E                     dE             d eps       ncg     rms          rms(c)
DAV:   1     0.589608543789E+04    0.58961E+04   -0.24887E+05 44424   0.197E+03
DAV:   2     0.252203898615E+03   -0.56439E+04   -0.52796E+04 44048   0.551E+02
DAV:   3    -0.607208287474E+03   -0.85941E+03   -0.78265E+03 43808   0.228E+02
DAV:   4    -0.653370984349E+03   -0.46163E+02   -0.45738E+02 44584   0.535E+01
DAV:   5    -0.654195619596E+03   -0.82464E+00   -0.82197E+00 48096   0.765E+00    0.131E+01
DAV:   6    -0.533953941802E+03    0.12024E+03   -0.49575E+01 43224   0.175E+01    0.168E+01
DAV:   7    -0.533574284075E+03    0.37966E+00   -0.12838E+00 43856   0.359E+00    0.886E+00
DAV:   8    -0.533448369483E+03    0.12591E+00   -0.44446E-01 44104   0.377E+00    0.559E+00
DAV:   9    -0.533378458206E+03    0.69911E-01   -0.10634E-01 44752   0.948E-01    0.423E+00
DAV:  10    -0.533329129593E+03    0.49329E-01   -0.35814E-02 44880   0.763E-01    0.332E+00
DAV:  11    -0.533308335925E+03    0.20794E-01   -0.13982E-02 44768   0.358E-01    0.275E+00
DAV:  12    -0.533284816618E+03    0.23519E-01   -0.12056E-02 44088   0.381E-01    0.228E+00
DAV:  13    -0.533269963918E+03    0.14853E-01   -0.10620E-02 44376   0.322E-01    0.170E+00
DAV:  14    -0.533265658568E+03    0.43054E-02   -0.18383E-03 43680   0.156E-01    0.157E+00
DAV:  15    -0.533263697634E+03    0.19609E-02   -0.37578E-04 42664   0.560E-02    0.149E+00
DAV:  16    -0.533263028911E+03    0.66872E-03   -0.48570E-05 36000   0.423E-02    0.147E+00
DAV:  17    -0.533257301340E+03    0.57276E-02   -0.28611E-03 43488   0.153E-01    0.119E+00
DAV:  18    -0.533252147476E+03    0.51539E-02   -0.38225E-03 43944   0.173E-01    0.873E-01
DAV:  19    -0.533250506342E+03    0.16411E-02   -0.65197E-04 44056   0.697E-02    0.762E-01
DAV:  20    -0.533248823770E+03    0.16826E-02   -0.79631E-04 43552   0.855E-02    0.617E-01
DAV:  21    -0.533247102287E+03    0.17215E-02   -0.14476E-03 43968   0.108E-01    0.413E-01
DAV:  22    -0.533246158757E+03    0.94353E-03   -0.88321E-04 44280   0.814E-02    0.268E-01
DAV:  23    -0.533245930846E+03    0.22791E-03   -0.12691E-04 43008   0.316E-02    0.222E-01
DAV:  24    -0.533245918930E+03    0.11916E-04   -0.66934E-06 26416   0.716E-03    0.222E-01
DAV:  25    -0.533245907294E+03    0.11636E-04   -0.73280E-07 22496   0.292E-03    0.220E-01
DAV:  26    -0.533245874940E+03    0.32354E-04   -0.29374E-06 23104   0.737E-03    0.210E-01
DAV:  27    -0.533245884618E+03   -0.96781E-05   -0.69588E-07 22496   0.403E-03
   1 F= -.53324588E+03 E0= -.53324415E+03  d E =-.533246E+03  mag=     4.9492
       N       E                     dE             d eps       ncg     rms          rms(c)
DAV:   1    -0.533528520877E+03   -0.28265E+00   -0.64830E+00 45176   0.996E+00    0.520E+00
DAV:   2    -0.533227166038E+03    0.30135E+00   -0.84502E-01 43080   0.336E+00    0.483E+00
DAV:   3    -0.533233745223E+03   -0.65792E-02   -0.50028E-02 44648   0.719E-01    0.179E+00
DAV:   4    -0.533232420616E+03    0.13246E-02   -0.14594E-02 48984   0.599E-01    0.109E+00
DAV:   5    -0.533228019141E+03    0.44015E-02   -0.90077E-03 44624   0.432E-01    0.142E+00
DAV:   6    -0.533226785111E+03    0.12340E-02   -0.16949E-03 43176   0.165E-01    0.132E+00
DAV:   7    -0.533231011702E+03   -0.42266E-02   -0.25734E-03 46920   0.408E-01    0.199E+00
DAV:   8    -0.533225467154E+03    0.55445E-02   -0.17767E-02 45088   0.520E-01    0.281E-01
DAV:   9    -0.533229764045E+03   -0.42969E-02   -0.17192E-03 43848   0.174E-01    0.105E-01
DAV:  10    -0.533230179240E+03   -0.41519E-03   -0.30641E-04 43240   0.903E-02    0.103E-01
DAV:  11    -0.533230361582E+03   -0.18234E-03   -0.50755E-05 40040   0.255E-02    0.942E-02
DAV:  12    -0.533230410012E+03   -0.48430E-04   -0.28508E-05 31208   0.376E-02    0.748E-02
DAV:  13    -0.533230481501E+03   -0.71489E-04   -0.43506E-05 30888   0.312E-02    0.564E-02
DAV:  14    -0.533230565589E+03   -0.84088E-04   -0.29014E-05 31336   0.244E-02    0.428E-02
DAV:  15    -0.533230617828E+03   -0.52240E-04   -0.15688E-05 27240   0.149E-02    0.383E-02
DAV:  16    -0.533230647561E+03   -0.29732E-04   -0.66012E-06 26752   0.738E-03    0.374E-02
DAV:  17    -0.533230653623E+03   -0.60626E-05   -0.11352E-06 23968   0.302E-03
   2 F= -.53323065E+03 E0= -.53322871E+03  d E =0.152310E-01  mag=     4.9466
       N       E                     dE             d eps       ncg     rms          rms(c)
DAV:   1    -0.533409743353E+03   -0.17910E+00   -0.37313E+00 45320   0.753E+00    0.378E+00
DAV:   2    -0.533280449288E+03    0.12929E+00   -0.46266E-01 42544   0.251E+00    0.353E+00
DAV:   3    -0.533260132464E+03    0.20317E-01   -0.27706E-02 44136   0.521E-01    0.135E+00
DAV:   4    -0.533247394318E+03    0.12738E-01   -0.77721E-03 49160   0.443E-01    0.815E-01
DAV:   5    -0.533248895249E+03   -0.15009E-02   -0.43582E-03 44560   0.233E-01    0.414E-01
DAV:   6    -0.533248926722E+03   -0.31472E-04   -0.20315E-03 45000   0.357E-01    0.315E-01
DAV:   7    -0.533249066386E+03   -0.13966E-03   -0.13291E-03 48448   0.161E-01    0.332E-01
DAV:   8    -0.533245416026E+03    0.36504E-02   -0.38514E-03 44480   0.468E-01    0.153E-01
DAV:   9    -0.533246198478E+03   -0.78245E-03   -0.27665E-04 41488   0.855E-02    0.104E-01
DAV:  10    -0.533246433038E+03   -0.23456E-03   -0.58129E-05 35176   0.603E-02    0.493E-02
DAV:  11    -0.533246451717E+03   -0.18679E-04   -0.73024E-05 42080   0.370E-02    0.488E-02
DAV:  12    -0.533246407696E+03    0.44021E-04   -0.25530E-05 30272   0.197E-02    0.438E-02
DAV:  13    -0.533246416917E+03   -0.92206E-05   -0.49421E-06 24848   0.115E-02
   3 F= -.53324642E+03 E0= -.53324454E+03  d E =-.532299E-03  mag=     4.9496
       N       E                     dE             d eps       ncg     rms          rms(c)
DAV:   1    -0.533247547383E+03   -0.11397E-02   -0.18612E-02 45288   0.533E-01    0.274E-01
DAV:   2    -0.533248084547E+03   -0.53716E-03   -0.23367E-03 43160   0.185E-01    0.249E-01
DAV:   3    -0.533246986248E+03    0.10983E-02   -0.16879E-04 47456   0.524E-02    0.103E-01
DAV:   4    -0.533246942227E+03    0.44022E-04   -0.90513E-05 42536   0.496E-02    0.108E-01
DAV:   5    -0.533247321076E+03   -0.37885E-03   -0.58774E-05 37368   0.507E-02    0.974E-02
DAV:   6    -0.533247354376E+03   -0.33301E-04   -0.60243E-05 34944   0.486E-02    0.903E-02
DAV:   7    -0.533247096627E+03    0.25775E-03   -0.97563E-05 40504   0.741E-02    0.509E-02
DAV:   8    -0.533247233206E+03   -0.13658E-03   -0.71464E-05 35448   0.395E-02    0.467E-02
DAV:   9    -0.533247356395E+03   -0.12319E-03   -0.46324E-05 34384   0.218E-02    0.420E-02
DAV:  10    -0.533247369064E+03   -0.12668E-04   -0.10264E-05 25080   0.726E-03    0.414E-02
DAV:  11    -0.533247357501E+03    0.11563E-04   -0.17550E-06 23104   0.808E-03    0.444E-02
DAV:  12    -0.533247309930E+03    0.47571E-04   -0.82884E-07 21864   0.501E-03    0.486E-02
DAV:  13    -0.533247327065E+03   -0.17135E-04   -0.46903E-06 24112   0.129E-02    0.589E-02
DAV:  14    -0.533247474753E+03   -0.14769E-03   -0.81999E-05 36000   0.439E-02    0.802E-02
DAV:  15    -0.533246821409E+03    0.65334E-03   -0.18827E-03 50704   0.227E-01    0.531E-02
DAV:  16    -0.533246413166E+03    0.40824E-03   -0.12103E-03 53704   0.117E-01    0.481E-02
DAV:  17    -0.533246024700E+03    0.38847E-03   -0.16142E-03 51776   0.185E-01    0.557E-02
DAV:  18    -0.533245513875E+03    0.51083E-03   -0.70834E-04 39960   0.513E-02    0.404E-02
DAV:  19    -0.533246238756E+03   -0.72488E-03   -0.99628E-04 51992   0.165E-01    0.768E-02
DAV:  20    -0.533245853813E+03    0.38494E-03   -0.24011E-04 39488   0.491E-02    0.720E-02
DAV:  21    -0.533245536128E+03    0.31769E-03   -0.20645E-05 27824   0.197E-02    0.642E-02
DAV:  22    -0.533244642676E+03    0.89345E-03   -0.23087E-04 45136   0.820E-02    0.332E-02
DAV:  23    -0.533245178364E+03   -0.53569E-03   -0.18342E-04 41376   0.708E-02    0.332E-02
DAV:  24    -0.533245217681E+03   -0.39317E-04   -0.20973E-05 25984   0.991E-03    0.318E-02
DAV:  25    -0.533245299336E+03   -0.81655E-04   -0.10288E-05 25408   0.156E-02    0.300E-02
DAV:  26    -0.533244676652E+03    0.62268E-03   -0.14392E-04 37752   0.556E-02    0.347E-02
DAV:  27    -0.533244665419E+03    0.11234E-04   -0.11113E-04 39992   0.431E-02    0.381E-02
DAV:  28    -0.533244543232E+03    0.12219E-03   -0.89148E-05 37320   0.340E-02    0.431E-02
DAV:  29    -0.533245329448E+03   -0.78622E-03   -0.91765E-04 49680   0.144E-01    0.458E-02
DAV:  30    -0.533245193389E+03    0.13606E-03   -0.39925E-04 42488   0.465E-02    0.412E-02
DAV:  31    -0.533245284600E+03   -0.91211E-04   -0.83676E-05 32488   0.402E-02    0.592E-02
DAV:  32    -0.533245126044E+03    0.15856E-03   -0.78773E-05 34056   0.249E-02    0.560E-02
DAV:  33    -0.533245352732E+03   -0.22669E-03   -0.10635E-04 35272   0.515E-02    0.663E-02
DAV:  34    -0.533245137160E+03    0.21557E-03   -0.11856E-04 39040   0.330E-02    0.500E-02
DAV:  35    -0.533245311007E+03   -0.17385E-03   -0.18776E-04 40824   0.601E-02    0.512E-02
DAV:  36    -0.533245137862E+03    0.17315E-03   -0.14609E-04 37680   0.329E-02    0.409E-02
DAV:  37    -0.533245032370E+03    0.10549E-03   -0.82088E-05 34232   0.400E-02    0.465E-02
DAV:  38    -0.533244788042E+03    0.24433E-03   -0.91040E-05 36464   0.245E-02    0.372E-02
DAV:  39    -0.533244520400E+03    0.26764E-03   -0.26416E-05 28824   0.177E-02    0.230E-02
DAV:  40    -0.533244990599E+03   -0.47020E-03   -0.82197E-05 33296   0.478E-02    0.442E-02
DAV:  41    -0.533245197004E+03   -0.20641E-03   -0.12641E-04 39944   0.396E-02    0.526E-02
DAV:  42    -0.533245158427E+03    0.38578E-04   -0.42061E-05 27760   0.116E-02    0.500E-02
DAV:  43    -0.533245154206E+03    0.42209E-05   -0.13562E-06 22872   0.329E-03
   4 F= -.53324515E+03 E0= -.53324333E+03  d E =0.730412E-03  mag=     4.9485
       N       E                     dE             d eps       ncg     rms          rms(c)
DAV:   1    -0.533247886488E+03   -0.27281E-02   -0.55627E-02 45264   0.921E-01    0.479E-01
DAV:   2    -0.533247136151E+03    0.75034E-03   -0.68518E-03 43112   0.315E-01    0.453E-01
DAV:   3    -0.533245523151E+03    0.16130E-02   -0.45004E-04 44168   0.721E-02    0.161E-01
DAV:   4    -0.533244339716E+03    0.11834E-02   -0.17539E-04 45464   0.797E-02    0.100E-01
DAV:   5    -0.533244567963E+03   -0.22825E-03   -0.10795E-04 42040   0.436E-02    0.138E-01
DAV:   6    -0.533244818904E+03   -0.25094E-03   -0.56297E-05 38488   0.456E-02    0.128E-01
DAV:   7    -0.533244903547E+03   -0.84643E-04   -0.16158E-05 28080   0.261E-02    0.816E-02
DAV:   8    -0.533244715699E+03    0.18785E-03   -0.34629E-05 30936   0.411E-02    0.204E-02
DAV:   9    -0.533244592323E+03    0.12338E-03   -0.20606E-05 28512   0.170E-02    0.164E-02
DAV:  10    -0.533244577496E+03    0.14827E-04   -0.43925E-06 24536   0.808E-03    0.164E-02
DAV:  11    -0.533244559424E+03    0.18073E-04   -0.17624E-06 22880   0.557E-03    0.151E-02
DAV:  12    -0.533244559867E+03   -0.44386E-06   -0.57082E-07 21704   0.245E-03
   5 F= -.53324456E+03 E0= -.53324273E+03  d E =0.132475E-02  mag=     4.9489
       N       E                     dE             d eps       ncg     rms          rms(c)
DAV:   1    -0.533245212507E+03   -0.65308E-03   -0.13913E-02 45296   0.461E-01    0.233E-01
DAV:   2    -0.533245896206E+03   -0.68370E-03   -0.17150E-03 43000   0.156E-01    0.218E-01
DAV:   3    -0.533245030610E+03    0.86560E-03   -0.10474E-04 44208   0.333E-02    0.840E-02
DAV:   4    -0.533244638309E+03    0.39230E-03   -0.31165E-05 32048   0.313E-02    0.547E-02
DAV:   5    -0.533244872350E+03   -0.23404E-03   -0.60031E-05 37464   0.416E-02    0.366E-02
DAV:   6    -0.533244936511E+03   -0.64161E-04   -0.24554E-05 30024   0.269E-02    0.331E-02
DAV:   7    -0.533244843494E+03    0.93016E-04   -0.12601E-05 24992   0.183E-02    0.410E-02
DAV:   8    -0.533244636753E+03    0.20674E-03   -0.16837E-05 28792   0.303E-02    0.209E-02
DAV:   9    -0.533244660906E+03   -0.24153E-04   -0.45251E-06 23240   0.646E-03    0.210E-02
DAV:  10    -0.533244626528E+03    0.34378E-04   -0.11702E-05 23792   0.168E-02    0.222E-02
DAV:  11    -0.533244581722E+03    0.44806E-04   -0.20347E-04 41296   0.624E-02    0.275E-02
DAV:  12    -0.533244571880E+03    0.98419E-05   -0.17840E-04 43288   0.457E-02    0.214E-02
DAV:  13    -0.533244545086E+03    0.26794E-04   -0.73788E-05 35936   0.225E-02    0.147E-02
DAV:  14    -0.533244583548E+03   -0.38463E-04   -0.18713E-05 26192   0.214E-02    0.108E-02
DAV:  15    -0.533244540376E+03    0.43172E-04   -0.26366E-05 30560   0.173E-02    0.897E-03
DAV:  16    -0.533244533657E+03    0.67188E-05   -0.10504E-05 23512   0.108E-02
   6 F= -.53324453E+03 E0= -.53324272E+03  d E =0.135096E-02  mag=     4.9494
       N       E                     dE             d eps       ncg     rms          rms(c)
DAV:   1    -0.533244688188E+03   -0.14781E-03   -0.34743E-03 45320   0.231E-01    0.116E-01
DAV:   2    -0.533245168207E+03   -0.48002E-03   -0.43165E-04 43064   0.775E-02    0.109E-01
DAV:   3    -0.533244750351E+03    0.41786E-03   -0.22787E-05 26832   0.158E-02    0.436E-02
DAV:   4    -0.533244530972E+03    0.21938E-03   -0.13469E-05 22552   0.146E-02    0.255E-02
DAV:   5    -0.533244505672E+03    0.25300E-04   -0.54424E-06 23720   0.939E-03    0.178E-02
DAV:   6    -0.533244547355E+03   -0.41682E-04   -0.30775E-06 22792   0.921E-03    0.171E-02
DAV:   7    -0.533244566545E+03   -0.19190E-04   -0.57763E-07 20968   0.375E-03    0.130E-02
DAV:   8    -0.533244499914E+03    0.66631E-04   -0.82772E-07 20944   0.613E-03    0.711E-03
DAV:   9    -0.533244500767E+03   -0.85370E-06   -0.48002E-07 21448   0.303E-03
   7 F= -.53324450E+03 E0= -.53324271E+03  d E =0.138385E-02  mag=     4.9496
       N       E                     dE             d eps       ncg     rms          rms(c)
DAV:   1    -0.533244536984E+03   -0.37070E-04   -0.87295E-04 45224   0.116E-01    0.583E-02
DAV:   2    -0.533244816243E+03   -0.27926E-03   -0.10769E-04 42952   0.388E-02    0.548E-02
DAV:   3    -0.533244600354E+03    0.21589E-03   -0.60116E-06 21984   0.828E-03    0.220E-02
DAV:   4    -0.533244465233E+03    0.13512E-03   -0.37716E-06 21568   0.955E-03    0.131E-02
DAV:   5    -0.533244429068E+03    0.36165E-04   -0.28570E-06 24288   0.103E-02    0.162E-02
DAV:   6    -0.533244465695E+03   -0.36627E-04   -0.20252E-06 22120   0.727E-03    0.169E-02
DAV:   7    -0.533244483156E+03   -0.17461E-04   -0.34219E-07 20816   0.325E-03    0.111E-02
DAV:   8    -0.533244471125E+03    0.12030E-04   -0.36762E-07 20816   0.465E-03    0.587E-03
DAV:   9    -0.533244467471E+03    0.36547E-05   -0.66493E-07 21256   0.292E-03
   8 F= -.53324447E+03 E0= -.53324267E+03  d E =0.141715E-02  mag=     4.9498
       N       E                     dE             d eps       ncg     rms          rms(c)
DAV:   1    -0.533244464271E+03    0.68548E-05   -0.21656E-04 45088   0.576E-02    0.294E-02
DAV:   2    -0.533244616655E+03   -0.15238E-03   -0.23973E-05 25512   0.198E-02    0.299E-02
DAV:   3    -0.533244517391E+03    0.99264E-04   -0.52602E-06 21104   0.645E-03    0.104E-02
DAV:   4    -0.533244442965E+03    0.74426E-04   -0.16008E-06 20808   0.699E-03    0.962E-03
DAV:   5    -0.533244418022E+03    0.24943E-04   -0.14504E-06 21192   0.732E-03    0.677E-03
DAV:   6    -0.533244417326E+03    0.69622E-06   -0.96398E-07 21248   0.406E-03
   9 F= -.53324442E+03 E0= -.53324265E+03  d E =0.146729E-02  mag=     4.9498
       N       E                     dE             d eps       ncg     rms          rms(c)
DAV:   1    -0.533242567690E+03    0.18503E-02   -0.64142E-02 56456   0.171E+00    0.208E-01
DAV:   2    -0.533244694093E+03   -0.21264E-02   -0.17545E-02 43960   0.336E-01    0.111E-01
DAV:   3    -0.533244671312E+03    0.22781E-04   -0.71348E-04 45736   0.878E-02    0.538E-02
DAV:   4    -0.533244540345E+03    0.13097E-03   -0.45529E-05 32032   0.266E-02    0.435E-02
DAV:   5    -0.533244361382E+03    0.17896E-03   -0.16664E-05 29200   0.310E-02    0.382E-02
DAV:   6    -0.533244428952E+03   -0.67570E-04   -0.16083E-05 26632   0.159E-02    0.537E-02
DAV:   7    -0.533244569242E+03   -0.14029E-03   -0.17292E-05 29032   0.298E-02    0.239E-02
DAV:   8    -0.533244537301E+03    0.31941E-04   -0.69778E-06 24392   0.146E-02    0.152E-02
DAV:   9    -0.533244560751E+03   -0.23450E-04   -0.54098E-06 25528   0.131E-02    0.824E-03
DAV:  10    -0.533244547946E+03    0.12805E-04   -0.20275E-06 22832   0.651E-03    0.734E-03
DAV:  11    -0.533244547562E+03    0.38378E-06   -0.14038E-06 23960   0.408E-03
  10 F= -.53324455E+03 E0= -.53324271E+03  d E =-.130236E-03  mag=     4.9487
       N       E                     dE             d eps       ncg     rms          rms(c)
DAV:   1    -0.533244467247E+03    0.80699E-04   -0.22921E-03 56456   0.323E-01    0.396E-02
DAV:   2    -0.533244510925E+03   -0.43677E-04   -0.62711E-04 43880   0.642E-02    0.221E-02
DAV:   3    -0.533244538063E+03   -0.27138E-04   -0.25442E-05 30000   0.178E-02    0.127E-02
DAV:   4    -0.533244565547E+03   -0.27484E-04   -0.25866E-06 21896   0.703E-03    0.117E-02
DAV:   5    -0.533244588037E+03   -0.22490E-04   -0.10795E-06 21240   0.609E-03    0.108E-02
DAV:   6    -0.533244564446E+03    0.23592E-04   -0.11750E-06 21424   0.476E-03    0.108E-02
DAV:   7    -0.533244543376E+03    0.21070E-04   -0.94698E-07 22512   0.548E-03    0.893E-03
DAV:   8    -0.533244551474E+03   -0.80981E-05   -0.21807E-06 23056   0.675E-03
  11 F= -.53324455E+03 E0= -.53324273E+03  d E =-.134148E-03  mag=     4.9488
