       N       E                     dE             d eps       ncg     rms          rms(c)
DAV:   1     0.210040196567E+04    0.21004E+04   -0.11430E+05 33736   0.177E+03
DAV:   2    -0.789334672525E+02   -0.21793E+04   -0.20341E+04 34704   0.473E+02
DAV:   3    -0.334926719989E+03   -0.25599E+03   -0.25035E+03 34384   0.179E+02
DAV:   4    -0.342373757991E+03   -0.74470E+01   -0.74088E+01 35120   0.327E+01
DAV:   5    -0.342509216279E+03   -0.13546E+00   -0.13520E+00 37424   0.441E+00    0.823E+00
DAV:   6    -0.282096484355E+03    0.60413E+02   -0.20273E+01 34024   0.157E+01    0.109E+01
DAV:   7    -0.281898525342E+03    0.19796E+00   -0.47067E-01 35480   0.292E+00    0.484E+00
DAV:   8    -0.281797206190E+03    0.10132E+00   -0.15914E-01 34696   0.144E+00    0.248E+00
DAV:   9    -0.281770569042E+03    0.26637E-01   -0.19299E-02 35104   0.497E-01    0.200E+00
DAV:  10    -0.281750539340E+03    0.20030E-01   -0.18357E-02 34720   0.554E-01    0.128E+00
DAV:  11    -0.281740299581E+03    0.10240E-01   -0.13476E-02 34880   0.432E-01    0.804E-01
DAV:  12    -0.281739065166E+03    0.12344E-02   -0.65747E-04 37712   0.941E-02    0.757E-01
DAV:  13    -0.281738801185E+03    0.26398E-03   -0.15701E-05 23400   0.214E-02    0.721E-01
DAV:  14    -0.281736464342E+03    0.23368E-02   -0.20807E-03 34840   0.174E-01    0.482E-01
DAV:  15    -0.281734517375E+03    0.19470E-02   -0.59276E-03 34824   0.297E-01    0.427E-02
DAV:  16    -0.281734396092E+03    0.12128E-03   -0.23061E-04 34784   0.585E-02    0.134E-02
DAV:  17    -0.281734402359E+03   -0.62665E-05   -0.31031E-06 21624   0.791E-03
   1 F= -.28173440E+03 E0= -.28173440E+03  d E =-.281734E+03  mag=     0.0000
       N       E                     dE             d eps       ncg     rms          rms(c)
DAV:   1    -0.281764860823E+03   -0.30465E-01   -0.82662E-01 36080   0.528E+00    0.159E+00
DAV:   2    -0.281735465901E+03    0.29395E-01   -0.11405E-01 34680   0.172E+00    0.152E+00
DAV:   3    -0.281737707641E+03   -0.22417E-02   -0.75403E-03 36472   0.368E-01    0.522E-01
DAV:   4    -0.281737987005E+03   -0.27936E-03   -0.13380E-03 40600   0.261E-01    0.303E-01
DAV:   5    -0.281737447832E+03    0.53917E-03   -0.73046E-04 34720   0.154E-01    0.139E-01
DAV:   6    -0.281737882327E+03   -0.43450E-03   -0.84946E-05 33952   0.627E-02    0.250E-02
DAV:   7    -0.281737829011E+03    0.53316E-04   -0.18801E-05 20328   0.200E-02    0.127E-02
DAV:   8    -0.281737850943E+03   -0.21932E-04   -0.49466E-06 18736   0.103E-02    0.111E-02
DAV:   9    -0.281737884312E+03   -0.33369E-04   -0.89787E-07 18704   0.479E-03    0.428E-03
DAV:  10    -0.281737889154E+03   -0.48416E-05   -0.37899E-07 18680   0.351E-03
   2 F= -.28173789E+03 E0= -.28173789E+03  d E =-.348679E-02  mag=    -0.0000
       N       E                     dE             d eps       ncg     rms          rms(c)
DAV:   1    -0.281739605050E+03   -0.17207E-02   -0.48498E-02 36128   0.128E+00    0.384E-01
DAV:   2    -0.281736893704E+03    0.27113E-02   -0.66865E-03 34720   0.419E-01    0.366E-01
DAV:   3    -0.281737675559E+03   -0.78186E-03   -0.44309E-04 36592   0.894E-02    0.125E-01
DAV:   4    -0.281737944230E+03   -0.26867E-03   -0.73218E-05 32120   0.634E-02    0.752E-02
DAV:   5    -0.281737865531E+03    0.78699E-04   -0.58500E-05 32344   0.414E-02    0.392E-02
DAV:   6    -0.281737961569E+03   -0.96038E-04   -0.59025E-06 18704   0.177E-02    0.634E-03
DAV:   7    -0.281737948213E+03    0.13356E-04   -0.24854E-06 18456   0.688E-03    0.307E-03
DAV:   8    -0.281737953671E+03   -0.54580E-05   -0.41123E-07 18280   0.303E-03
   3 F= -.28173795E+03 E0= -.28173795E+03  d E =-.355131E-02  mag=    -0.0000
       N       E                     dE             d eps       ncg     rms          rms(c)
DAV:   1    -0.281740437999E+03   -0.24898E-02   -0.63021E-01 34488   0.487E+00    0.852E-01
DAV:   2    -0.281738392372E+03    0.20456E-02   -0.77095E-02 34120   0.128E+00    0.702E-01
DAV:   3    -0.281738696353E+03   -0.30398E-03   -0.37648E-03 35608   0.279E-01    0.224E-01
DAV:   4    -0.281738784995E+03   -0.88642E-04   -0.71625E-04 40968   0.177E-01    0.115E-01
DAV:   5    -0.281738805025E+03   -0.20030E-04   -0.27414E-04 34232   0.988E-02    0.797E-02
DAV:   6    -0.281738727269E+03    0.77755E-04   -0.30585E-05 27840   0.325E-02    0.234E-02
DAV:   7    -0.281738760479E+03   -0.33210E-04   -0.80970E-06 18824   0.128E-02    0.149E-02
DAV:   8    -0.281738753236E+03    0.72431E-05   -0.19931E-06 18768   0.686E-03
   4 F= -.28173875E+03 E0= -.28173875E+03  d E =-.799565E-03  mag=    -0.0000
       N       E                     dE             d eps       ncg     rms          rms(c)
DAV:   1    -0.281739261315E+03   -0.50084E-03   -0.80812E-02 34624   0.174E+00    0.303E-01
DAV:   2    -0.281739719238E+03   -0.45792E-03   -0.98612E-03 34128   0.458E-01    0.251E-01
DAV:   3    -0.281739326695E+03    0.39254E-03   -0.48109E-04 35656   0.100E-01    0.809E-02
DAV:   4    -0.281739083526E+03    0.24317E-03   -0.89640E-05 36392   0.644E-02    0.428E-02
DAV:   5    -0.281739048434E+03    0.35092E-04   -0.36929E-05 30984   0.361E-02    0.295E-02
DAV:   6    -0.281739077907E+03   -0.29473E-04   -0.42898E-06 18704   0.125E-02    0.860E-03
DAV:   7    -0.281739068960E+03    0.89472E-05   -0.13753E-06 18472   0.537E-03
   5 F= -.28173907E+03 E0= -.28173907E+03  d E =-.111529E-02  mag=    -0.0000
       N       E                     dE             d eps       ncg     rms          rms(c)
DAV:   1    -0.281735707549E+03    0.33704E-02   -0.32863E-01 34512   0.353E+00    0.333E-01
DAV:   2    -0.281739260363E+03   -0.35528E-02   -0.34894E-02 35384   0.755E-01    0.222E-01
DAV:   3    -0.281739448820E+03   -0.18846E-03   -0.10650E-03 35816   0.146E-01    0.117E-01
DAV:   4    -0.281739325853E+03    0.12297E-03   -0.10378E-04 38248   0.497E-02    0.641E-02
DAV:   5    -0.281739439107E+03   -0.11325E-03   -0.62363E-05 33784   0.502E-02    0.210E-02
DAV:   6    -0.281739412591E+03    0.26516E-04   -0.19183E-05 23640   0.199E-02    0.130E-02
DAV:   7    -0.281739393511E+03    0.19080E-04   -0.27840E-06 18800   0.874E-03    0.590E-03
DAV:   8    -0.281739400902E+03   -0.73909E-05   -0.67413E-07 18688   0.436E-03
   6 F= -.28173940E+03 E0= -.28173940E+03  d E =-.331943E-03  mag=    -0.0000
       N       E                     dE             d eps       ncg     rms          rms(c)
DAV:   1    -0.281739032402E+03    0.36111E-03   -0.46862E-02 34608   0.134E+00    0.126E-01
DAV:   2    -0.281739630682E+03   -0.59828E-03   -0.49766E-03 35400   0.285E-01    0.835E-02
DAV:   3    -0.281739584854E+03    0.45828E-04   -0.15167E-04 33824   0.551E-02    0.439E-02
DAV:   4    -0.281739600042E+03   -0.15188E-04   -0.14415E-05 22200   0.194E-02    0.244E-02
DAV:   5    -0.281739545724E+03    0.54318E-04   -0.10809E-05 20864   0.204E-02    0.922E-03
DAV:   6    -0.281739555231E+03   -0.95069E-05   -0.37896E-06 18352   0.897E-03
   7 F= -.28173956E+03 E0= -.28173956E+03  d E =-.486271E-03  mag=    -0.0000
       N       E                     dE             d eps       ncg     rms          rms(c)
DAV:   1    -0.281736649700E+03    0.28960E-02   -0.19785E-01 36880   0.329E+00    0.296E-01
DAV:   2    -0.281739573128E+03   -0.29234E-02   -0.31284E-02 34464   0.687E-01    0.187E-01
DAV:   3    -0.281740032100E+03   -0.45897E-03   -0.99278E-04 35616   0.141E-01    0.831E-02
DAV:   4    -0.281739947440E+03    0.84660E-04   -0.75865E-05 31192   0.396E-02    0.482E-02
DAV:   5    -0.281740050816E+03   -0.10338E-03   -0.36682E-05 31672   0.472E-02    0.148E-02
DAV:   6    -0.281740065321E+03   -0.14505E-04   -0.18590E-05 24016   0.186E-02    0.932E-03
DAV:   7    -0.281740055393E+03    0.99275E-05   -0.21111E-06 18584   0.707E-03
   8 F= -.28174006E+03 E0= -.28174006E+03  d E =-.500163E-03  mag=    -0.0000
