       N       E                     dE             d eps       ncg     rms          rms(c)
DAV:   1     0.249317074799E+02    0.24932E+02   -0.59671E+03  8472   0.881E+02
DAV:   2    -0.171794192066E+02   -0.42111E+02   -0.41725E+02  8796   0.178E+02
DAV:   3    -0.177044610048E+02   -0.52504E+00   -0.52352E+00 10480   0.185E+01
DAV:   4    -0.177111273475E+02   -0.66663E-02   -0.66616E-02 10060   0.210E+00
DAV:   5    -0.177112762841E+02   -0.14894E-03   -0.14892E-03 10940   0.219E-01    0.507E-01
DAV:   6    -0.166034628274E+02    0.11078E+01   -0.51415E-01  8280   0.660E+00    0.265E-01
DAV:   7    -0.166042583660E+02   -0.79554E-03   -0.18878E-02  8708   0.188E+00    0.171E-01
DAV:   8    -0.166045090117E+02   -0.25065E-03   -0.55674E-03  8508   0.848E-01    0.103E-01
DAV:   9    -0.166043826198E+02    0.12639E-03   -0.31974E-03  8484   0.659E-01    0.673E-02
DAV:  10    -0.166044594230E+02   -0.76803E-04   -0.20038E-03  8420   0.523E-01    0.681E-02
DAV:  11    -0.166044057083E+02    0.53715E-04   -0.14061E-03  8420   0.437E-01    0.561E-02
DAV:  12    -0.166045162044E+02   -0.11050E-03   -0.78792E-04  8476   0.324E-01    0.344E-02
DAV:  13    -0.166045595271E+02   -0.43323E-04   -0.57490E-04  8384   0.282E-01    0.178E-02
DAV:  14    -0.166045793769E+02   -0.19850E-04   -0.37323E-04  8412   0.227E-01    0.140E-02
DAV:  15    -0.166046278924E+02   -0.48515E-04   -0.30694E-04  8376   0.206E-01    0.158E-03
DAV:  16    -0.166046315835E+02   -0.36911E-05   -0.20588E-04  8404   0.168E-01    0.923E-05
DAV:  17    -0.166046310068E+02    0.57666E-06   -0.13712E-04  8388   0.138E-01    0.100E-03
DAV:  18    -0.166046278582E+02    0.31486E-05   -0.93263E-05  8440   0.114E-01
   1 F= -.16604628E+02 E0= -.16603863E+02  d E =-.166046E+02  mag=     0.0000
