       N       E                     dE             d eps       ncg     rms          rms(c)
DAV:   1     0.272886112531E+04    0.27289E+04   -0.87613E+04 40008   0.206E+03
DAV:   2     0.270768767070E+03   -0.24581E+04   -0.22825E+04 41832   0.618E+02
DAV:   3    -0.190376699737E+03   -0.46115E+03   -0.44297E+03 40496   0.269E+02
DAV:   4    -0.222582203923E+03   -0.32206E+02   -0.30617E+02 46348   0.695E+01
DAV:   5    -0.223526895129E+03   -0.94469E+00   -0.92378E+00 44536   0.131E+01    0.373E+01
DAV:   6    -0.171277224535E+03    0.52250E+02   -0.15283E+02 49984   0.570E+01    0.512E+01
DAV:   7    -0.178676231810E+03   -0.73990E+01   -0.17921E+01 42672   0.200E+01    0.281E+01
DAV:   8    -0.179697301272E+03   -0.10211E+01   -0.28934E+00 47416   0.151E+01    0.191E+01
DAV:   9    -0.180591030735E+03   -0.89373E+00   -0.25593E+00 45164   0.148E+01    0.404E+00
DAV:  10    -0.180727990268E+03   -0.13696E+00   -0.59448E-01 46772   0.359E+00    0.149E+00
DAV:  11    -0.180743146332E+03   -0.15156E-01   -0.60793E-02 45212   0.164E+00    0.628E-01
DAV:  12    -0.180742745744E+03    0.40059E-03   -0.11317E-02 45272   0.507E-01    0.347E-01
DAV:  13    -0.180747870769E+03   -0.51250E-02   -0.55111E-03 43588   0.378E-01    0.189E-01
DAV:  14    -0.180746054621E+03    0.18161E-02   -0.11071E-03 47136   0.153E-01    0.131E-01
DAV:  15    -0.180745994441E+03    0.60179E-04   -0.63026E-04 43312   0.910E-02    0.936E-02
DAV:  16    -0.180746045503E+03   -0.51061E-04   -0.15117E-03 42968   0.113E-01    0.786E-02
DAV:  17    -0.180746200295E+03   -0.15479E-03   -0.20909E-03 45816   0.125E-01    0.756E-02
DAV:  18    -0.180747744808E+03   -0.15445E-02   -0.28722E-02 51160   0.484E-01    0.661E-02
DAV:  19    -0.180750315616E+03   -0.25708E-02   -0.68464E-02 51308   0.730E-01    0.663E-02
DAV:  20    -0.180751707908E+03   -0.13923E-02   -0.43559E-02 51992   0.545E-01    0.647E-02
DAV:  21    -0.180752245604E+03   -0.53770E-03   -0.50637E-03 42432   0.178E-01    0.538E-02
DAV:  22    -0.180752441465E+03   -0.19586E-03   -0.34724E-04 37584   0.781E-02    0.505E-02
DAV:  23    -0.180752354776E+03    0.86689E-04   -0.10898E-05 24780   0.155E-02    0.525E-02
DAV:  24    -0.180752972029E+03   -0.61725E-03   -0.69346E-03 44348   0.234E-01    0.668E-02
DAV:  25    -0.180753193195E+03   -0.22117E-03   -0.12247E-03 48316   0.917E-02    0.698E-02
DAV:  26    -0.180753173795E+03    0.19400E-04   -0.32160E-04 32872   0.660E-02    0.649E-02
DAV:  27    -0.180752990301E+03    0.18349E-03   -0.55820E-04 33404   0.644E-02    0.678E-02
DAV:  28    -0.180751867532E+03    0.11228E-02   -0.78252E-02 51828   0.784E-01    0.112E-01
DAV:  29    -0.180751556773E+03    0.31076E-03   -0.47355E-03 43960   0.183E-01    0.107E-01
DAV:  30    -0.180750988022E+03    0.56875E-03   -0.81258E-03 47528   0.232E-01    0.118E-01
DAV:  31    -0.180752762044E+03   -0.17740E-02   -0.68997E-02 47820   0.791E-01    0.164E-01
DAV:  32    -0.180753499452E+03   -0.73741E-03   -0.80442E-03 48368   0.243E-01    0.167E-01
DAV:  33    -0.180750104397E+03    0.33951E-02   -0.46099E-01 50204   0.199E+00    0.248E-01
DAV:  34    -0.180751589519E+03   -0.14851E-02   -0.10977E-01 46720   0.117E+00    0.149E-01
DAV:  35    -0.180751177519E+03    0.41200E-03   -0.75672E-04 42384   0.117E-01    0.705E-02
DAV:  36    -0.180751711024E+03   -0.53350E-03   -0.38443E-02 50496   0.552E-01    0.606E-02
DAV:  37    -0.180752480744E+03   -0.76972E-03   -0.15453E-02 52484   0.324E-01    0.617E-02
DAV:  38    -0.180752797802E+03   -0.31706E-03   -0.14660E-03 41752   0.100E-01    0.656E-02
DAV:  39    -0.180752831046E+03   -0.33243E-04   -0.11506E-04 29864   0.451E-02    0.692E-02
DAV:  40    -0.180752734448E+03    0.96598E-04   -0.96264E-05 25104   0.312E-02    0.613E-02
DAV:  41    -0.180752411879E+03    0.32257E-03   -0.28873E-03 44032   0.149E-01    0.583E-02
DAV:  42    -0.180751473345E+03    0.93853E-03   -0.52441E-02 50436   0.632E-01    0.978E-02
DAV:  43    -0.180750966352E+03    0.50699E-03   -0.16958E-02 52756   0.335E-01    0.103E-01
DAV:  44    -0.180750877464E+03    0.88888E-04   -0.69568E-04 38392   0.116E-01    0.109E-01
DAV:  45    -0.180750846799E+03    0.30664E-04   -0.81900E-05 28284   0.319E-02    0.991E-02
DAV:  46    -0.180751359676E+03   -0.51288E-03   -0.58361E-02 49488   0.691E-01    0.546E-02
DAV:  47    -0.180752425068E+03   -0.10654E-02   -0.35727E-02 52572   0.500E-01    0.634E-02
DAV:  48    -0.180752707411E+03   -0.28234E-03   -0.12692E-03 39124   0.147E-01    0.713E-02
DAV:  49    -0.180752572421E+03    0.13499E-03   -0.23467E-03 41288   0.141E-01    0.639E-02
DAV:  50    -0.180752679762E+03   -0.10734E-03   -0.26127E-04 37964   0.439E-02    0.573E-02
DAV:  51    -0.180754190635E+03   -0.15109E-02   -0.50814E-02 46968   0.642E-01    0.790E-02
DAV:  52    -0.180754420773E+03   -0.23014E-03   -0.11002E-03 39896   0.118E-01    0.783E-02
DAV:  53    -0.180754557671E+03   -0.13690E-03   -0.19084E-04 32552   0.457E-02    0.777E-02
DAV:  54    -0.180754450729E+03    0.10694E-03   -0.34828E-04 30176   0.585E-02    0.779E-02
DAV:  55    -0.180754458648E+03   -0.79184E-05   -0.14289E-05 22024   0.149E-02
   1 F= -.18075446E+03 E0= -.18075446E+03  d E =-.180754E+03  mag=    16.0002
       N       E                     dE             d eps       ncg     rms          rms(c)
DAV:   1    -0.180755066780E+03   -0.61605E-03   -0.55843E-01 39784   0.302E+00    0.278E-01
DAV:   2    -0.180753826845E+03    0.12399E-02   -0.21407E-02 40320   0.666E-01    0.169E-01
DAV:   3    -0.180754965666E+03   -0.11388E-02   -0.75377E-04 47692   0.161E-01    0.106E-01
DAV:   4    -0.180754238739E+03    0.72693E-03   -0.40104E-04 43504   0.772E-02    0.573E-02
DAV:   5    -0.180754335994E+03   -0.97255E-04   -0.30803E-04 40268   0.506E-02    0.372E-02
DAV:   6    -0.180754502439E+03   -0.16644E-03   -0.15297E-04 24624   0.332E-02    0.365E-02
DAV:   7    -0.180754491979E+03    0.10460E-04   -0.19512E-04 27308   0.348E-02    0.356E-02
DAV:   8    -0.180754601019E+03   -0.10904E-03   -0.14162E-03 40632   0.984E-02    0.350E-02
DAV:   9    -0.180754801746E+03   -0.20073E-03   -0.30126E-03 45536   0.144E-01    0.336E-02
DAV:  10    -0.180755085795E+03   -0.28405E-03   -0.14697E-02 48360   0.323E-01    0.345E-02
DAV:  11    -0.180755494997E+03   -0.40920E-03   -0.11362E-02 51036   0.271E-01    0.321E-02
DAV:  12    -0.180755697178E+03   -0.20218E-03   -0.47230E-03 47412   0.161E-01    0.295E-02
DAV:  13    -0.180755765516E+03   -0.68338E-04   -0.89492E-04 40852   0.632E-02    0.267E-02
DAV:  14    -0.180755916759E+03   -0.15124E-03   -0.41827E-03 45084   0.164E-01    0.288E-02
DAV:  15    -0.180756082724E+03   -0.16597E-03   -0.37224E-03 49996   0.157E-01    0.285E-02
DAV:  16    -0.180756184080E+03   -0.10136E-03   -0.86923E-03 45068   0.239E-01    0.329E-02
DAV:  17    -0.180756663892E+03   -0.47981E-03   -0.22544E-02 49832   0.385E-01    0.417E-02
DAV:  18    -0.180756818693E+03   -0.15480E-03   -0.86670E-04 39324   0.106E-01    0.348E-02
DAV:  19    -0.180756899844E+03   -0.81150E-04   -0.29291E-04 30820   0.467E-02    0.350E-02
DAV:  20    -0.180756955413E+03   -0.55569E-04   -0.78467E-04 32004   0.843E-02    0.424E-02
DAV:  21    -0.180757113079E+03   -0.15767E-03   -0.65525E-03 43572   0.223E-01    0.402E-02
DAV:  22    -0.180757123405E+03   -0.10325E-04   -0.71461E-04 35780   0.875E-02    0.385E-02
DAV:  23    -0.180757075202E+03    0.48202E-04   -0.14312E-03 37900   0.101E-01    0.400E-02
DAV:  24    -0.180757078422E+03   -0.32196E-05   -0.10327E-03 33860   0.964E-02    0.384E-02
DAV:  25    -0.180757349392E+03   -0.27097E-03   -0.52490E-02 50320   0.638E-01    0.469E-02
DAV:  26    -0.180758216389E+03   -0.86700E-03   -0.90165E-02 53124   0.808E-01    0.931E-02
DAV:  27    -0.180758282804E+03   -0.66416E-04   -0.35723E-03 40692   0.200E-01    0.784E-02
DAV:  28    -0.180758412467E+03   -0.12966E-03   -0.32885E-04 35480   0.497E-02    0.779E-02
DAV:  29    -0.180758442160E+03   -0.29693E-04   -0.28314E-05 26996   0.207E-02    0.750E-02
DAV:  30    -0.180758433297E+03    0.88631E-05   -0.16053E-04 23580   0.370E-02    0.700E-02
DAV:  31    -0.180758570163E+03   -0.13687E-03   -0.47703E-05 22240   0.247E-02    0.693E-02
DAV:  32    -0.180758849722E+03   -0.27956E-03   -0.53020E-03 45296   0.206E-01    0.925E-02
DAV:  33    -0.180759357902E+03   -0.50818E-03   -0.84371E-03 45768   0.281E-01    0.873E-02
DAV:  34    -0.180759058538E+03    0.29936E-03   -0.45253E-03 42516   0.204E-01    0.771E-02
DAV:  35    -0.180758836648E+03    0.22189E-03   -0.81344E-03 48388   0.256E-01    0.107E-01
DAV:  36    -0.180759156815E+03   -0.32017E-03   -0.16235E-02 49464   0.348E-01    0.147E-01
DAV:  37    -0.180759102935E+03    0.53879E-04   -0.81887E-04 39696   0.944E-02    0.137E-01
DAV:  38    -0.180759002873E+03    0.10006E-03   -0.46330E-03 45792   0.190E-01    0.164E-01
DAV:  39    -0.180759184284E+03   -0.18141E-03   -0.14457E-03 48864   0.102E-01    0.162E-01
DAV:  40    -0.180759273785E+03   -0.89502E-04   -0.59556E-04 34336   0.615E-02    0.162E-01
DAV:  41    -0.180759224715E+03    0.49071E-04   -0.48572E-05 28684   0.254E-02    0.155E-01
DAV:  42    -0.180759214677E+03    0.10038E-04   -0.41648E-06 20680   0.872E-03    0.152E-01
DAV:  43    -0.180759355504E+03   -0.14083E-03   -0.19307E-03 39392   0.128E-01    0.162E-01
DAV:  44    -0.180759147411E+03    0.20809E-03   -0.65185E-03 43708   0.239E-01    0.108E-01
DAV:  45    -0.180759711512E+03   -0.56410E-03   -0.31977E-02 47484   0.531E-01    0.116E-01
DAV:  46    -0.180758412790E+03    0.12987E-02   -0.32307E-02 47880   0.540E-01    0.929E-02
DAV:  47    -0.180758984069E+03   -0.57128E-03   -0.20745E-02 47924   0.431E-01    0.139E-01
DAV:  48    -0.180759266481E+03   -0.28241E-03   -0.25471E-04 40044   0.577E-02    0.134E-01
DAV:  49    -0.180755313791E+03    0.39527E-02   -0.18877E-01 49216   0.124E+00    0.949E-02
DAV:  50    -0.180755636753E+03   -0.32296E-03   -0.63789E-03 41876   0.295E-01    0.629E-02
DAV:  51    -0.180755948346E+03   -0.31159E-03   -0.88082E-04 40460   0.699E-02    0.590E-02
DAV:  52    -0.180757311484E+03   -0.13631E-02   -0.46307E-03 44980   0.177E-01    0.400E-02
DAV:  53    -0.180757601077E+03   -0.28959E-03   -0.25793E-04 40372   0.471E-02    0.417E-02
DAV:  54    -0.180757570683E+03    0.30394E-04   -0.22478E-04 28696   0.468E-02    0.275E-02
DAV:  55    -0.180757994250E+03   -0.42357E-03   -0.27498E-03 39432   0.154E-01    0.388E-02
DAV:  56    -0.180757767105E+03    0.22714E-03   -0.52903E-04 30440   0.752E-02    0.396E-02
DAV:  57    -0.180757930491E+03   -0.16339E-03   -0.25840E-03 41580   0.151E-01    0.387E-02
DAV:  58    -0.180757887740E+03    0.42752E-04   -0.10437E-04 34656   0.329E-02    0.328E-02
DAV:  59    -0.180757887544E+03    0.19528E-06   -0.50449E-05 22732   0.252E-02
   2 F= -.18075789E+03 E0= -.18075789E+03  d E =-.342890E-02  mag=    16.0000
       N       E                     dE             d eps       ncg     rms          rms(c)
DAV:   1    -0.180757829727E+03    0.58013E-04   -0.28124E-05 21292   0.152E-02    0.334E-02
DAV:   2    -0.180757406781E+03    0.42295E-03   -0.11453E-05 21776   0.209E-02    0.198E-02
DAV:   3    -0.180757561982E+03   -0.15520E-03   -0.25444E-06 20100   0.104E-02    0.118E-02
DAV:   4    -0.180757540271E+03    0.21710E-04   -0.62781E-06 20100   0.109E-02    0.601E-03
DAV:   5    -0.180757525232E+03    0.15040E-04   -0.23517E-06 20700   0.509E-03    0.511E-03
DAV:   6    -0.180757523847E+03    0.13848E-05   -0.49022E-06 20100   0.918E-03
   3 F= -.18075752E+03 E0= -.18075752E+03  d E =-.306520E-02  mag=    16.0000
       N       E                     dE             d eps       ncg     rms          rms(c)
DAV:   1    -0.180757351818E+03    0.17341E-03   -0.50502E-01 39764   0.279E+00    0.235E-01
DAV:   2    -0.180758837972E+03   -0.14862E-02   -0.17231E-02 39952   0.577E-01    0.145E-01
DAV:   3    -0.180758273763E+03    0.56421E-03   -0.32799E-04 49668   0.998E-02    0.848E-02
DAV:   4    -0.180758378659E+03   -0.10490E-03   -0.46892E-05 42056   0.504E-02    0.394E-02
DAV:   5    -0.180758361301E+03    0.17358E-04   -0.31646E-05 33376   0.324E-02    0.880E-03
DAV:   6    -0.180758332372E+03    0.28930E-04   -0.81160E-06 21684   0.175E-02    0.645E-03
DAV:   7    -0.180758346534E+03   -0.14163E-04   -0.16422E-06 21224   0.744E-03    0.417E-03
DAV:   8    -0.180758355387E+03   -0.88531E-05   -0.86854E-07 21044   0.559E-03
   4 F= -.18075836E+03 E0= -.18075836E+03  d E =-.831540E-03  mag=    16.0000
