       N       E                     dE             d eps       ncg     rms          ort
DAV:   1     0.401207173796E+04    0.40121E+04   -0.17284E+05  9486   0.202E+03
DAV:   2     0.243277733414E+03   -0.37688E+04   -0.35265E+04  9486   0.552E+02
DAV:   3    -0.389037558409E+03   -0.63232E+03   -0.57899E+03  9486   0.231E+02
DAV:   4    -0.426160377552E+03   -0.37123E+02   -0.36771E+02  9486   0.548E+01
DAV:   5    -0.426753702343E+03   -0.59332E+00   -0.59198E+00  9486   0.770E+00
SDA:   6    -0.346555144837E+03    0.80199E+02   -0.59198E+00  9486   0.233E+02 0.000E+00
CGA:   7    -0.349950086256E+03   -0.33949E+01   -0.34060E+01  9486   0.280E+01 0.606E-01
CGA:   8    -0.350404954996E+03   -0.45487E+00   -0.45701E+00  9486   0.893E+00 0.638E-01
CGA:   9    -0.350554485733E+03   -0.14953E+00   -0.15074E+00  9486   0.279E+00 0.390E-01
CGA:  10    -0.350613164935E+03   -0.58679E-01   -0.58616E-01  9486   0.122E+00 0.845E-02
CGA:  11    -0.350637962558E+03   -0.24798E-01   -0.24812E-01  9486   0.544E-01-0.632E-02
CGA:  12    -0.350652564671E+03   -0.14602E-01   -0.15957E-01  9486   0.435E-01-0.119E-01
CGA:  13    -0.350659349972E+03   -0.67853E-02   -0.67816E-02  9486   0.148E-01-0.474E-02
CGA:  14    -0.350662150437E+03   -0.28005E-02   -0.27957E-02  9486   0.512E-02 0.399E-03
CGA:  15    -0.350662999821E+03   -0.84938E-03   -0.88536E-03  9486   0.151E-02 0.111E-02
CGA:  16    -0.350663178800E+03   -0.17898E-03   -0.23651E-03  9486   0.631E-03 0.819E-03
CGA:  17    -0.350663234173E+03   -0.55373E-04   -0.82782E-04  9486   0.334E-03 0.426E-03
CGA:  18    -0.350663252501E+03   -0.18328E-04   -0.39162E-04  9486   0.235E-03 0.276E-03
CGA:  19    -0.350663259695E+03   -0.71943E-05   -0.24424E-04  9486   0.179E-03 0.203E-03
CGA:  20    -0.350663262334E+03   -0.26392E-05   -0.16884E-04  9486   0.142E-03 0.158E-03
CGA:  21    -0.350663262890E+03   -0.55553E-06   -0.12366E-04  9486   0.116E-03 0.127E-03
   1 F= -.35066326E+03 E0= -.35066326E+03  d E =-.350663E+03  mag=    -0.0000
       N       E                     dE             d eps       ncg     rms          ort
SDA:   1    -0.350648450593E+03    0.14812E-01    0.00000E+00  9486   0.382E-01 0.000E+00
CGA:   2    -0.350655944775E+03   -0.74942E-02   -0.74716E-02  9486   0.229E-01 0.870E-03
CGA:   3    -0.350660480755E+03   -0.45360E-02   -0.45300E-02  9486   0.912E-02 0.262E-03
CGA:   4    -0.350662188815E+03   -0.17081E-02   -0.17098E-02  9486   0.358E-02-0.143E-03
CGA:   5    -0.350662834070E+03   -0.64525E-03   -0.64591E-03  9486   0.147E-02-0.669E-04
CGA:   6    -0.350663113714E+03   -0.27964E-03   -0.27883E-03  9486   0.654E-03 0.413E-04
CGA:   7    -0.350663248516E+03   -0.13480E-03   -0.13355E-03  9486   0.244E-03 0.529E-04
CGA:   8    -0.350663304755E+03   -0.56239E-04   -0.55684E-04  9486   0.806E-04 0.157E-04
CGA:   9    -0.350663324848E+03   -0.20094E-04   -0.20211E-04  9486   0.279E-04-0.210E-05
CGA:  10    -0.350663331007E+03   -0.61584E-05   -0.61474E-05  9486   0.808E-05 0.229E-06
   2 F= -.35066333E+03 E0= -.35066333E+03  d E =-.681166E-04  mag=    -0.0000
