       N       E                     dE             d eps       ncg     rms          rms(c)
DAV:   1     0.296146780620E+04    0.29615E+04   -0.95636E+04 27774   0.212E+03
DAV:   2     0.304025566607E+03   -0.26574E+04   -0.24961E+04 29408   0.640E+02
DAV:   3    -0.210784574502E+03   -0.51481E+03   -0.49108E+03 29200   0.282E+02
DAV:   4    -0.250839956602E+03   -0.40055E+02   -0.38814E+02 31560   0.772E+01
DAV:   5    -0.252134676066E+03   -0.12947E+01   -0.12824E+01 31890   0.155E+01    0.480E+01
DAV:   6    -0.187425015203E+03    0.64710E+02   -0.14608E+02 36422   0.645E+01    0.560E+01
DAV:   7    -0.193469738492E+03   -0.60447E+01   -0.18682E+01 29280   0.260E+01    0.371E+01
DAV:   8    -0.193257102286E+03    0.21264E+00   -0.31635E+00 30438   0.134E+01    0.228E+01
DAV:   9    -0.194048220062E+03   -0.79112E+00   -0.96285E-01 34130   0.992E+00    0.895E+00
DAV:  10    -0.194143351313E+03   -0.95131E-01   -0.45683E-01 33760   0.316E+00    0.252E+00
DAV:  11    -0.194135078669E+03    0.82726E-02   -0.10005E-01 30824   0.224E+00    0.179E+00
DAV:  12    -0.194139408974E+03   -0.43303E-02   -0.99980E-03 32024   0.522E-01    0.749E-01
DAV:  13    -0.194142336784E+03   -0.29278E-02   -0.24933E-03 35134   0.307E-01    0.374E-01
DAV:  14    -0.194144877726E+03   -0.25409E-02   -0.13354E-03 33036   0.263E-01    0.162E-01
DAV:  15    -0.194145597585E+03   -0.71986E-03   -0.69097E-04 34410   0.133E-01    0.143E-01
DAV:  16    -0.194146761056E+03   -0.11635E-02   -0.30072E-04 36786   0.131E-01    0.113E-01
DAV:  17    -0.194148396911E+03   -0.16359E-02   -0.87525E-04 38152   0.221E-01    0.914E-02
DAV:  18    -0.194149722183E+03   -0.13253E-02   -0.16301E-03 35988   0.281E-01    0.715E-02
DAV:  19    -0.194150686556E+03   -0.96437E-03   -0.12239E-03 34498   0.178E-01    0.569E-02
DAV:  20    -0.194151400074E+03   -0.71352E-03   -0.67755E-04 39252   0.206E-01    0.416E-02
DAV:  21    -0.194151652914E+03   -0.25284E-03   -0.10111E-03 36124   0.177E-01    0.286E-02
DAV:  22    -0.194151706646E+03   -0.53732E-04   -0.41784E-04 29154   0.724E-02    0.206E-02
DAV:  23    -0.194151687979E+03    0.18668E-04   -0.50172E-05 22536   0.301E-02    0.117E-02
DAV:  24    -0.194151792234E+03   -0.10426E-03   -0.13205E-05 20420   0.279E-02    0.798E-03
DAV:  25    -0.194151758101E+03    0.34133E-04   -0.18038E-05 20650   0.240E-02    0.567E-03
DAV:  26    -0.194151780405E+03   -0.22303E-04   -0.93526E-06 19386   0.113E-02    0.449E-03
DAV:  27    -0.194151786406E+03   -0.60011E-05   -0.12398E-06 15436   0.858E-03
   1 F= -.19415179E+03 E0= -.19415179E+03  d E =-.194152E+03  mag=     0.0000
       N       E                     dE             d eps       ncg     rms          rms(c)
DAV:   1    -0.194633138551E+03   -0.48136E+00   -0.11451E+01 29424   0.222E+01    0.626E+00
DAV:   2    -0.194193376943E+03    0.43976E+00   -0.14880E+00 30134   0.699E+00    0.555E+00
DAV:   3    -0.194187962262E+03    0.54147E-02   -0.13308E-01 30648   0.171E+00    0.183E+00
DAV:   4    -0.194175408665E+03    0.12554E-01   -0.16540E-02 34574   0.111E+00    0.111E+00
DAV:   5    -0.194168138682E+03    0.72700E-02   -0.67351E-03 32660   0.572E-01    0.385E-01
DAV:   6    -0.194170744519E+03   -0.26058E-02   -0.10495E-03 30154   0.202E-01    0.856E-02
DAV:   7    -0.194170803252E+03   -0.58733E-04   -0.18108E-04 34928   0.778E-02    0.323E-02
DAV:   8    -0.194170594803E+03    0.20845E-03   -0.22217E-05 20530   0.300E-02    0.262E-02
DAV:   9    -0.194170704025E+03   -0.10922E-03   -0.66535E-06 16748   0.181E-02    0.147E-02
DAV:  10    -0.194170700933E+03    0.30918E-05   -0.53601E-06 17852   0.141E-02
   2 F= -.19417070E+03 E0= -.19417070E+03  d E =-.189145E-01  mag=    -0.0000
       N       E                     dE             d eps       ncg     rms          rms(c)
DAV:   1    -0.194177774583E+03   -0.70706E-02   -0.16340E-01 29376   0.263E+00    0.746E-01
DAV:   2    -0.194173929199E+03    0.38454E-02   -0.21454E-02 30340   0.829E-01    0.646E-01
DAV:   3    -0.194171771001E+03    0.21582E-02   -0.19358E-03 30308   0.208E-01    0.218E-01
DAV:   4    -0.194171106244E+03    0.66476E-03   -0.22469E-04 34324   0.129E-01    0.131E-01
DAV:   5    -0.194171323537E+03   -0.21729E-03   -0.99336E-05 30260   0.695E-02    0.461E-02
DAV:   6    -0.194171049936E+03    0.27360E-03   -0.15009E-05 19940   0.250E-02    0.117E-02
DAV:   7    -0.194171058008E+03   -0.80713E-05   -0.33679E-06 15294   0.122E-02
   3 F= -.19417106E+03 E0= -.19417106E+03  d E =-.192716E-01  mag=    -0.0000
       N       E                     dE             d eps       ncg     rms          rms(c)
DAV:   1    -0.194175814012E+03   -0.47641E-02   -0.36584E+00 27736   0.945E+00    0.150E+00
DAV:   2    -0.194176475631E+03   -0.66162E-03   -0.20275E-01 28104   0.229E+00    0.135E+00
DAV:   3    -0.194178044115E+03   -0.15685E-02   -0.83371E-03 31312   0.482E-01    0.357E-01
DAV:   4    -0.194177656779E+03    0.38734E-03   -0.17618E-03 31928   0.335E-01    0.179E-01
DAV:   5    -0.194177403182E+03    0.25360E-03   -0.70922E-04 31504   0.158E-01    0.126E-01
DAV:   6    -0.194177375922E+03    0.27260E-04   -0.92185E-05 30492   0.617E-02    0.358E-02
DAV:   7    -0.194177454075E+03   -0.78153E-04   -0.29055E-05 24832   0.277E-02    0.276E-02
DAV:   8    -0.194177402375E+03    0.51700E-04   -0.31230E-06 16104   0.123E-02    0.153E-02
DAV:   9    -0.194177420783E+03   -0.18408E-04   -0.19920E-06 15948   0.112E-02    0.652E-03
DAV:  10    -0.194177407488E+03    0.13295E-04   -0.97646E-07 15768   0.581E-03    0.227E-03
DAV:  11    -0.194177406994E+03    0.49342E-06   -0.21038E-07 15504   0.323E-03
   4 F= -.19417741E+03 E0= -.19417741E+03  d E =-.634899E-02  mag=    -0.0000
       N       E                     dE             d eps       ncg     rms          rms(c)
DAV:   1    -0.194176678810E+03    0.72868E-03   -0.46662E+00 27736   0.107E+01    0.170E+00
DAV:   2    -0.194178746001E+03   -0.20672E-02   -0.25912E-01 28080   0.259E+00    0.153E+00
DAV:   3    -0.194180418711E+03   -0.16727E-02   -0.10634E-02 31384   0.544E-01    0.406E-01
DAV:   4    -0.194179802010E+03    0.61670E-03   -0.22712E-03 31600   0.381E-01    0.203E-01
DAV:   5    -0.194179510894E+03    0.29112E-03   -0.91546E-04 31488   0.180E-01    0.143E-01
DAV:   6    -0.194179459327E+03    0.51567E-04   -0.12175E-04 32756   0.706E-02    0.411E-02
DAV:   7    -0.194179553033E+03   -0.93706E-04   -0.36705E-05 25352   0.304E-02    0.325E-02
DAV:   8    -0.194179493801E+03    0.59232E-04   -0.36523E-06 16236   0.135E-02    0.177E-02
DAV:   9    -0.194179513971E+03   -0.20170E-04   -0.28156E-06 16044   0.129E-02    0.686E-03
DAV:  10    -0.194179499271E+03    0.14700E-04   -0.12179E-06 15804   0.656E-03    0.261E-03
DAV:  11    -0.194179500143E+03   -0.87280E-06   -0.28601E-07 15528   0.376E-03
   5 F= -.19417950E+03 E0= -.19417950E+03  d E =-.844214E-02  mag=    -0.0000
       N       E                     dE             d eps       ncg     rms          rms(c)
DAV:   1    -0.194174282588E+03    0.52167E-02   -0.36444E+00 28728   0.966E+00    0.121E+00
DAV:   2    -0.194184928250E+03   -0.10646E-01   -0.22125E-01 27744   0.232E+00    0.871E-01
DAV:   3    -0.194184753221E+03    0.17503E-03   -0.85458E-03 32100   0.517E-01    0.428E-01
DAV:   4    -0.194183226711E+03    0.15265E-02   -0.17881E-03 34716   0.270E-01    0.186E-01
DAV:   5    -0.194183131112E+03    0.95599E-04   -0.73624E-04 31332   0.146E-01    0.866E-02
DAV:   6    -0.194182965455E+03    0.16566E-03   -0.11658E-04 27620   0.634E-02    0.466E-02
DAV:   7    -0.194182977274E+03   -0.11819E-04   -0.19185E-05 21404   0.280E-02    0.386E-02
DAV:   8    -0.194182931266E+03    0.46009E-04   -0.63988E-06 16356   0.178E-02    0.141E-02
DAV:   9    -0.194182921507E+03    0.97583E-05   -0.43205E-06 17820   0.146E-02
   6 F= -.19418292E+03 E0= -.19418292E+03  d E =-.342136E-02  mag=    -0.0000
       N       E                     dE             d eps       ncg     rms          rms(c)
DAV:   1    -0.194182404262E+03    0.52700E-03   -0.31172E-01 28728   0.283E+00    0.353E-01
DAV:   2    -0.194182865366E+03   -0.46110E-03   -0.18840E-02 27780   0.675E-01    0.251E-01
DAV:   3    -0.194183139976E+03   -0.27461E-03   -0.72600E-04 32084   0.152E-01    0.124E-01
DAV:   4    -0.194183059682E+03    0.80293E-04   -0.15157E-04 34220   0.789E-02    0.539E-02
DAV:   5    -0.194183067062E+03   -0.73796E-05   -0.62213E-05 28276   0.424E-02    0.263E-02
DAV:   6    -0.194183016103E+03    0.50959E-04   -0.90894E-06 16080   0.201E-02    0.140E-02
DAV:   7    -0.194183021746E+03   -0.56438E-05   -0.28377E-06 15714   0.105E-02
   7 F= -.19418302E+03 E0= -.19418302E+03  d E =-.352160E-02  mag=    -0.0000
       N       E                     dE             d eps       ncg     rms          rms(c)
DAV:   1    -0.194165616337E+03    0.17400E-01   -0.14225E+00 32194   0.887E+00    0.822E-01
DAV:   2    -0.194184510597E+03   -0.18894E-01   -0.19953E-01 27888   0.198E+00    0.507E-01
DAV:   3    -0.194184705886E+03   -0.19529E-03   -0.86525E-03 30688   0.488E-01    0.297E-01
DAV:   4    -0.194184226708E+03    0.47918E-03   -0.10539E-03 34900   0.170E-01    0.159E-01
DAV:   5    -0.194184114827E+03    0.11188E-03   -0.35084E-04 32056   0.122E-01    0.308E-02
DAV:   6    -0.194184088273E+03    0.26554E-04   -0.91021E-05 27320   0.524E-02    0.312E-02
DAV:   7    -0.194184059087E+03    0.29186E-04   -0.11537E-05 16156   0.173E-02    0.163E-02
DAV:   8    -0.194184060549E+03   -0.14623E-05   -0.25972E-06 16026   0.121E-02
   8 F= -.19418406E+03 E0= -.19418406E+03  d E =-.103880E-02  mag=    -0.0000
       N       E                     dE             d eps       ncg     rms          rms(c)
DAV:   1    -0.194183508274E+03    0.55081E-03   -0.48337E-02 32220   0.164E+00    0.152E-01
DAV:   2    -0.194184201743E+03   -0.69347E-03   -0.67767E-03 27972   0.364E-01    0.933E-02
DAV:   3    -0.194184138807E+03    0.62936E-04   -0.29196E-04 29360   0.895E-02    0.540E-02
DAV:   4    -0.194184094640E+03    0.44167E-04   -0.35047E-05 27196   0.325E-02    0.287E-02
DAV:   5    -0.194184088034E+03    0.66065E-05   -0.13268E-05 17200   0.235E-02    0.509E-03
DAV:   6    -0.194184095038E+03   -0.70043E-05   -0.44076E-06 14736   0.127E-02
   9 F= -.19418410E+03 E0= -.19418410E+03  d E =-.107329E-02  mag=    -0.0000
       N       E                     dE             d eps       ncg     rms          rms(c)
DAV:   1    -0.194174677512E+03    0.94105E-02   -0.97575E-01 32960   0.689E+00    0.549E-01
DAV:   2    -0.194184994108E+03   -0.10317E-01   -0.10654E-01 27720   0.143E+00    0.328E-01
DAV:   3    -0.194185142136E+03   -0.14803E-03   -0.43053E-03 29736   0.355E-01    0.170E-01
DAV:   4    -0.194185328585E+03   -0.18645E-03   -0.48042E-04 34660   0.128E-01    0.912E-02
DAV:   5    -0.194185202293E+03    0.12629E-03   -0.15186E-04 32680   0.763E-02    0.302E-02
DAV:   6    -0.194185131276E+03    0.71017E-04   -0.37233E-05 26512   0.340E-02    0.150E-02
DAV:   7    -0.194185150354E+03   -0.19078E-04   -0.35581E-06 16020   0.107E-02    0.924E-03
DAV:   8    -0.194185154348E+03   -0.39938E-05   -0.12532E-06 15600   0.802E-03
  10 F= -.19418515E+03 E0= -.19418515E+03  d E =-.105931E-02  mag=     0.0000
       N       E                     dE             d eps       ncg     rms          rms(c)
DAV:   1    -0.194184447151E+03    0.70320E-03   -0.72245E-02 33058   0.188E+00    0.149E-01
DAV:   2    -0.194185155787E+03   -0.70864E-03   -0.78758E-03 27936   0.389E-01    0.887E-02
DAV:   3    -0.194185178792E+03   -0.23005E-04   -0.32026E-04 29244   0.969E-02    0.460E-02
DAV:   4    -0.194185275770E+03   -0.96978E-04   -0.33418E-05 24360   0.350E-02    0.248E-02
DAV:   5    -0.194185245479E+03    0.30291E-04   -0.13414E-05 18068   0.229E-02    0.826E-03
DAV:   6    -0.194185224170E+03    0.21309E-04   -0.44968E-06 15312   0.127E-02    0.419E-03
DAV:   7    -0.194185231604E+03   -0.74337E-05   -0.96588E-07 14790   0.562E-03
  11 F= -.19418523E+03 E0= -.19418523E+03  d E =-.113657E-02  mag=     0.0000
       N       E                     dE             d eps       ncg     rms          rms(c)
DAV:   1    -0.194178189949E+03    0.70342E-02   -0.72896E-01 31752   0.553E+00    0.394E-01
DAV:   2    -0.194185424577E+03   -0.72346E-02   -0.67461E-02 28776   0.115E+00    0.229E-01
DAV:   3    -0.194185549085E+03   -0.12451E-03   -0.24255E-03 31176   0.258E-01    0.120E-01
DAV:   4    -0.194185552028E+03   -0.29437E-05   -0.18466E-04 31736   0.709E-02    0.736E-02
DAV:   5    -0.194185537302E+03    0.14726E-04   -0.12032E-04 29824   0.759E-02    0.250E-02
DAV:   6    -0.194185530457E+03    0.68455E-05   -0.35368E-05 24864   0.332E-02
  12 F= -.19418553E+03 E0= -.19418553E+03  d E =-.298853E-03  mag=    -0.0000
       N       E                     dE             d eps       ncg     rms          rms(c)
DAV:   1    -0.194184862619E+03    0.67468E-03   -0.76850E-02 31760   0.180E+00    0.128E-01
DAV:   2    -0.194185652594E+03   -0.78998E-03   -0.70795E-03 28896   0.371E-01    0.768E-02
DAV:   3    -0.194185670843E+03   -0.18249E-04   -0.25499E-04 30504   0.831E-02    0.397E-02
DAV:   4    -0.194185647685E+03    0.23158E-04   -0.17400E-05 20992   0.221E-02    0.243E-02
DAV:   5    -0.194185638209E+03    0.94761E-05   -0.13555E-05 17792   0.261E-02    0.752E-03
DAV:   6    -0.194185640572E+03   -0.23633E-05   -0.53486E-06 14532   0.127E-02
  13 F= -.19418564E+03 E0= -.19418564E+03  d E =-.408968E-03  mag=     0.0000
