       N       E                     dE             d eps       ncg     rms          rms(c)
DAV:   1     0.103957758143E+04    0.10396E+04   -0.65381E+04 37968   0.157E+03
DAV:   2    -0.965335726109E+02   -0.11361E+04   -0.10626E+04 39776   0.415E+02
DAV:   3    -0.209291927114E+03   -0.11276E+03   -0.11152E+03 40328   0.147E+02
DAV:   4    -0.211659071998E+03   -0.23671E+01   -0.23589E+01 42048   0.228E+01
DAV:   5    -0.211700286862E+03   -0.41215E-01   -0.41185E-01 43576   0.283E+00    0.592E+00
DAV:   6    -0.174532910072E+03    0.37167E+02   -0.10184E+01 39616   0.140E+01    0.809E+00
DAV:   7    -0.174427877078E+03    0.10503E+00   -0.22921E-01 41704   0.234E+00    0.324E+00
DAV:   8    -0.174368802921E+03    0.59074E-01   -0.73880E-02 41288   0.117E+00    0.200E+00
DAV:   9    -0.174346312882E+03    0.22490E-01   -0.21101E-02 41376   0.674E-01    0.131E+00
DAV:  10    -0.174337394868E+03    0.89180E-02   -0.76265E-03 41504   0.420E-01    0.912E-01
DAV:  11    -0.174334530914E+03    0.28640E-02   -0.17354E-03 41224   0.189E-01    0.744E-01
DAV:  12    -0.174334366054E+03    0.16486E-03   -0.37680E-05 35520   0.312E-02    0.739E-01
DAV:  13    -0.174334366994E+03   -0.93995E-06   -0.15723E-06 25192   0.639E-03
   1 F= -.17433437E+03 E0= -.17433437E+03  d E =-.174334E+03  mag=     0.0000
       N       E                     dE             d eps       ncg     rms          rms(c)
DAV:   1    -0.175523163031E+03   -0.11888E+01   -0.23962E+01 42584   0.320E+01    0.107E+01
DAV:   2    -0.174295778416E+03    0.12274E+01   -0.35717E+00 40648   0.121E+01    0.102E+01
DAV:   3    -0.174272261415E+03    0.23517E-01   -0.24165E-01 41288   0.234E+00    0.314E+00
DAV:   4    -0.174252879809E+03    0.19382E-01   -0.36818E-02 41504   0.111E+00    0.177E+00
DAV:   5    -0.174240427011E+03    0.12453E-01   -0.13972E-02 40984   0.734E-01    0.580E-01
DAV:   6    -0.174243816710E+03   -0.33897E-02   -0.18265E-03 40512   0.407E-01    0.714E-02
DAV:   7    -0.174243869317E+03   -0.52607E-04   -0.30986E-04 43904   0.900E-02    0.333E-02
DAV:   8    -0.174243987532E+03   -0.11821E-03   -0.34374E-05 36320   0.540E-02    0.433E-02
DAV:   9    -0.174244009585E+03   -0.22053E-04   -0.12363E-05 26008   0.189E-02    0.930E-03
DAV:  10    -0.174243993636E+03    0.15949E-04   -0.24181E-06 23080   0.116E-02    0.454E-03
DAV:  11    -0.174244020858E+03   -0.27222E-04   -0.82999E-07 22696   0.539E-03    0.337E-03
DAV:  12    -0.174244022713E+03   -0.18546E-05   -0.24751E-07 21936   0.320E-03
   2 F= -.17424402E+03 E0= -.17424402E+03  d E =0.903443E-01  mag=     0.0000
       N       E                     dE             d eps       ncg     rms          rms(c)
DAV:   1    -0.174544392469E+03   -0.30037E+00   -0.48461E+00 42528   0.144E+01    0.442E+00
DAV:   2    -0.174330185293E+03    0.21421E+00   -0.62808E-01 40216   0.534E+00    0.409E+00
DAV:   3    -0.174313591387E+03    0.16594E-01   -0.44391E-02 41040   0.105E+00    0.139E+00
DAV:   4    -0.174304897361E+03    0.86940E-02   -0.61622E-03 42056   0.539E-01    0.795E-01
DAV:   5    -0.174304480351E+03    0.41701E-03   -0.31064E-03 40832   0.339E-01    0.298E-01
DAV:   6    -0.174303431162E+03    0.10492E-02   -0.29318E-04 40784   0.163E-01    0.378E-02
DAV:   7    -0.174303628615E+03   -0.19745E-03   -0.64560E-05 39008   0.414E-02    0.187E-02
DAV:   8    -0.174303510219E+03    0.11840E-03   -0.72070E-06 25208   0.212E-02    0.214E-02
DAV:   9    -0.174303519096E+03   -0.88764E-05   -0.30591E-06 23088   0.966E-03
   3 F= -.17430352E+03 E0= -.17430352E+03  d E =0.308479E-01  mag=     0.0000
       N       E                     dE             d eps       ncg     rms          rms(c)
DAV:   1    -0.174352028881E+03   -0.48519E-01   -0.70944E-01 42528   0.551E+00    0.169E+00
DAV:   2    -0.174323659088E+03    0.28370E-01   -0.92146E-02 40296   0.209E+00    0.159E+00
DAV:   3    -0.174319428243E+03    0.42308E-02   -0.62581E-03 41192   0.392E-01    0.539E-01
DAV:   4    -0.174317397688E+03    0.20306E-02   -0.94084E-04 41928   0.204E-01    0.308E-01
DAV:   5    -0.174317675841E+03   -0.27815E-03   -0.44904E-04 40968   0.129E-01    0.112E-01
DAV:   6    -0.174317230952E+03    0.44489E-03   -0.43461E-05 36896   0.634E-02    0.137E-02
DAV:   7    -0.174317303507E+03   -0.72555E-04   -0.95279E-06 23400   0.163E-02    0.678E-03
DAV:   8    -0.174317255394E+03    0.48113E-04   -0.15057E-06 22408   0.880E-03    0.801E-03
DAV:   9    -0.174317259744E+03   -0.43500E-05   -0.39826E-07 21328   0.378E-03
   4 F= -.17431726E+03 E0= -.17431726E+03  d E =0.171072E-01  mag=     0.0000
       N       E                     dE             d eps       ncg     rms          rms(c)
DAV:   1    -0.174366644271E+03   -0.49389E-01   -0.82062E-01 42544   0.592E+00    0.181E+00
DAV:   2    -0.174333507374E+03    0.33137E-01   -0.10633E-01 40248   0.224E+00    0.170E+00
DAV:   3    -0.174328814413E+03    0.46930E-02   -0.72518E-03 41208   0.422E-01    0.581E-01
DAV:   4    -0.174326547676E+03    0.22667E-02   -0.10938E-03 41936   0.221E-01    0.332E-01
DAV:   5    -0.174326836816E+03   -0.28914E-03   -0.52064E-04 40968   0.138E-01    0.120E-01
DAV:   6    -0.174326350268E+03    0.48655E-03   -0.49855E-05 37568   0.675E-02    0.145E-02
DAV:   7    -0.174326430932E+03   -0.80664E-04   -0.10708E-05 23544   0.173E-02    0.716E-03
DAV:   8    -0.174326380188E+03    0.50745E-04   -0.17293E-06 22576   0.937E-03    0.850E-03
DAV:   9    -0.174326383892E+03   -0.37045E-05   -0.44061E-07 21520   0.398E-03
   5 F= -.17432638E+03 E0= -.17432638E+03  d E =0.798310E-02  mag=     0.0000
       N       E                     dE             d eps       ncg     rms          rms(c)
DAV:   1    -0.174338799752E+03   -0.12420E-01   -0.20581E-01 42536   0.296E+00    0.908E-01
DAV:   2    -0.174331620273E+03    0.71795E-02   -0.26680E-02 40320   0.113E+00    0.858E-01
DAV:   3    -0.174329651145E+03    0.19691E-02   -0.18002E-03 41216   0.209E-01    0.293E-01
DAV:   4    -0.174328751732E+03    0.89941E-03   -0.27833E-04 41912   0.111E-01    0.167E-01
DAV:   5    -0.174328975608E+03   -0.22388E-03   -0.13044E-04 40984   0.693E-02    0.599E-02
DAV:   6    -0.174328724883E+03    0.25073E-03   -0.12181E-05 26352   0.340E-02    0.725E-03
DAV:   7    -0.174328765470E+03   -0.40587E-04   -0.33270E-06 22000   0.955E-03    0.366E-03
DAV:   8    -0.174328739694E+03    0.25776E-04   -0.44597E-07 21008   0.460E-03    0.389E-03
DAV:   9    -0.174328741405E+03   -0.17117E-05   -0.12549E-07 20512   0.226E-03
   6 F= -.17432874E+03 E0= -.17432874E+03  d E =0.562559E-02  mag=     0.0000
       N       E                     dE             d eps       ncg     rms          rms(c)
DAV:   1    -0.174331873222E+03   -0.31335E-02   -0.51525E-02 42552   0.148E+00    0.454E-01
DAV:   2    -0.174330623446E+03    0.12498E-02   -0.66813E-03 40352   0.566E-01    0.430E-01
DAV:   3    -0.174329734476E+03    0.88897E-03   -0.44923E-04 41224   0.104E-01    0.147E-01
DAV:   4    -0.174329343701E+03    0.39078E-03   -0.69610E-05 40688   0.554E-02    0.840E-02
DAV:   5    -0.174329476518E+03   -0.13282E-03   -0.34264E-05 38688   0.354E-02    0.311E-02
DAV:   6    -0.174329349252E+03    0.12727E-03   -0.33564E-06 21384   0.178E-02    0.374E-03
DAV:   7    -0.174329368838E+03   -0.19585E-04   -0.98865E-07 20024   0.517E-03    0.196E-03
DAV:   8    -0.174329356505E+03    0.12333E-04   -0.12094E-07 19704   0.229E-03    0.192E-03
DAV:   9    -0.174329356472E+03    0.33158E-07   -0.31778E-08 19440   0.119E-03
   7 F= -.17432936E+03 E0= -.17432936E+03  d E =0.501052E-02  mag=     0.0000
       N       E                     dE             d eps       ncg     rms          rms(c)
DAV:   1    -0.174330154299E+03   -0.79779E-03   -0.12891E-02 42552   0.741E-01    0.227E-01
DAV:   2    -0.174330113462E+03    0.40837E-04   -0.16716E-03 40416   0.284E-01    0.216E-01
DAV:   3    -0.174329692884E+03    0.42058E-03   -0.11231E-04 41224   0.519E-02    0.735E-02
DAV:   4    -0.174329512334E+03    0.18055E-03   -0.16318E-05 26384   0.277E-02    0.426E-02
DAV:   5    -0.174329581364E+03   -0.69030E-04   -0.11183E-05 23792   0.205E-02    0.206E-02
DAV:   6    -0.174329521664E+03    0.59700E-04   -0.18829E-06 19672   0.124E-02    0.230E-03
DAV:   7    -0.174329529323E+03   -0.76596E-05   -0.31516E-07 19072   0.329E-03
   8 F= -.17432953E+03 E0= -.17432953E+03  d E =0.483767E-02  mag=     0.0000
