       N       E                     dE             d eps       ncg     rms          rms(c)
DAV:   1     0.196221156391E+03    0.19622E+03   -0.15671E+04 15848   0.120E+03
DAV:   2    -0.603812928767E+02   -0.25660E+03   -0.24507E+03 22232   0.296E+02
DAV:   3    -0.781951409181E+02   -0.17814E+02   -0.17750E+02 20269   0.878E+01
DAV:   4    -0.783955817170E+02   -0.20044E+00   -0.20036E+00 19723   0.110E+01
DAV:   5    -0.783984354677E+02   -0.28538E-02   -0.28535E-02 20430   0.120E+00    0.161E+01
DAV:   6    -0.602247284057E+02    0.18174E+02   -0.10664E+01 20367   0.212E+01    0.816E+00
DAV:   7    -0.601371854971E+02    0.87543E-01   -0.39572E+00 18470   0.137E+01    0.467E+00
DAV:   8    -0.601968736561E+02   -0.59688E-01   -0.48825E-01 19163   0.574E+00    0.155E+00
DAV:   9    -0.601760272564E+02    0.20846E-01   -0.94545E-02 18050   0.223E+00    0.463E-01
DAV:  10    -0.601761303433E+02   -0.10309E-03   -0.47847E-02 19492   0.137E+00    0.267E-01
DAV:  11    -0.601781378369E+02   -0.20075E-02   -0.15465E-03 16937   0.379E-01    0.166E-01
DAV:  12    -0.601802539774E+02   -0.21161E-02   -0.26805E-03 17000   0.424E-01    0.527E-02
DAV:  13    -0.601804504204E+02   -0.19644E-03   -0.17242E-04 19191   0.106E-01    0.254E-02
DAV:  14    -0.601804892542E+02   -0.38834E-04   -0.56967E-05 14626   0.512E-02    0.719E-03
DAV:  15    -0.601805120708E+02   -0.22817E-04   -0.12679E-05 11559   0.276E-02    0.339E-03
DAV:  16    -0.601805136785E+02   -0.16077E-05   -0.18637E-06 14233   0.107E-02
   1 F= -.60180514E+02 E0= -.60180514E+02  d E =-.601805E+02  mag=    -0.0000
       N       E                     dE             d eps       ncg     rms          rms(c)
DAV:   1     0.150845818902E+02    0.75265E+02   -0.24574E+03 20332   0.302E+02    0.259E+01
DAV:   2    -0.446839242705E+01   -0.19553E+02   -0.27339E+02 16482   0.956E+01    0.185E+01
DAV:   3    -0.180461735835E+01    0.26638E+01   -0.11903E+01 19317   0.244E+01    0.104E+01
DAV:   4    -0.192808379919E+01   -0.12347E+00   -0.12585E+00 16931   0.107E+01    0.654E+00
DAV:   5    -0.180687659168E+01    0.12121E+00   -0.60329E-01 17354   0.667E+00    0.129E+00
DAV:   6    -0.185575404720E+01   -0.48877E-01   -0.12421E-01 18996   0.277E+00    0.535E-01
DAV:   7    -0.186173343669E+01   -0.59794E-02   -0.44054E-03 17892   0.644E-01    0.359E-01
DAV:   8    -0.186616318309E+01   -0.44297E-02   -0.56191E-03 16443   0.650E-01    0.591E-02
DAV:   9    -0.186643197840E+01   -0.26880E-03   -0.54706E-04 18550   0.236E-01    0.474E-02
DAV:  10    -0.186643848340E+01   -0.65050E-05   -0.77510E-05 16615   0.758E-02
   2 F= -.18664385E+01 E0= -.18664385E+01  d E =0.583141E+02  mag=     0.0000
       N       E                     dE             d eps       ncg     rms          rms(c)
DAV:   1    -0.656163015859E+02   -0.63750E+02   -0.14530E+03 15824   0.256E+02    0.312E+01
DAV:   2    -0.636085992922E+02    0.20077E+01   -0.84513E+01 20458   0.613E+01    0.124E+01
DAV:   3    -0.627040775577E+02    0.90452E+00   -0.63349E+00 20392   0.162E+01    0.881E+00
DAV:   4    -0.621493245509E+02    0.55475E+00   -0.25242E+00 20360   0.119E+01    0.193E+00
DAV:   5    -0.621072205563E+02    0.42104E-01   -0.24477E-01 18878   0.414E+00    0.101E+00
DAV:   6    -0.620999487542E+02    0.72718E-02   -0.19207E-01 20824   0.307E+00    0.378E-01
DAV:   7    -0.620998298230E+02    0.11893E-03   -0.19291E-02 20536   0.119E+00    0.146E-01
DAV:   8    -0.621013220824E+02   -0.14923E-02   -0.50089E-03 20834   0.555E-01    0.990E-02
DAV:   9    -0.621014553354E+02   -0.13325E-03   -0.70710E-04 22152   0.220E-01    0.226E-02
DAV:  10    -0.621015213829E+02   -0.66047E-04   -0.11097E-04 19548   0.728E-02    0.757E-03
DAV:  11    -0.621015272496E+02   -0.58668E-05   -0.64755E-06 14205   0.209E-02
   3 F= -.62101527E+02 E0= -.62101527E+02  d E =-.192101E+01  mag=     0.0000
       N       E                     dE             d eps       ncg     rms          rms(c)
DAV:   1    -0.640757823440E+02   -0.19743E+01   -0.52189E+01 17658   0.498E+01    0.265E+00
DAV:   2    -0.641451556492E+02   -0.69373E-01   -0.16397E+00 19814   0.874E+00    0.147E+00
DAV:   3    -0.641172041761E+02    0.27951E-01   -0.62402E-02 18869   0.203E+00    0.646E-01
DAV:   4    -0.641125528862E+02    0.46513E-02   -0.23421E-02 20017   0.113E+00    0.213E-01
DAV:   5    -0.641128798978E+02   -0.32701E-03   -0.32040E-03 19184   0.447E-01    0.840E-02
DAV:   6    -0.641130202730E+02   -0.14038E-03   -0.53678E-04 18750   0.188E-01    0.499E-02
DAV:   7    -0.641130020939E+02    0.18179E-04   -0.16880E-04 20192   0.104E-01    0.126E-02
DAV:   8    -0.641130057835E+02   -0.36896E-05   -0.22823E-05 15813   0.340E-02
   4 F= -.64113006E+02 E0= -.64113006E+02  d E =-.393249E+01  mag=     0.0000
       N       E                     dE             d eps       ncg     rms          rms(c)
DAV:   1    -0.644402653188E+02   -0.32726E+00   -0.18863E+01 19968   0.298E+01    0.161E+00
DAV:   2    -0.644755435785E+02   -0.35278E-01   -0.60067E-01 17994   0.548E+00    0.918E-01
DAV:   3    -0.644647384562E+02    0.10805E-01   -0.24436E-02 20486   0.128E+00    0.425E-01
DAV:   4    -0.644627262278E+02    0.20122E-02   -0.97617E-03 19772   0.737E-01    0.159E-01
DAV:   5    -0.644627721830E+02   -0.45955E-04   -0.14409E-03 19821   0.316E-01    0.548E-02
DAV:   6    -0.644627916766E+02   -0.19494E-04   -0.24374E-04 18295   0.121E-01    0.316E-02
DAV:   7    -0.644627985423E+02   -0.68658E-05   -0.73361E-05 17714   0.662E-02
   5 F= -.64462799E+02 E0= -.64462799E+02  d E =-.428228E+01  mag=     0.0000
       N       E                     dE             d eps       ncg     rms          rms(c)
DAV:   1    -0.644630563977E+02   -0.26472E-03   -0.18219E-02 20073   0.925E-01    0.473E-02
DAV:   2    -0.644631068741E+02   -0.50476E-04   -0.52937E-04 17399   0.165E-01    0.292E-02
DAV:   3    -0.644630867045E+02    0.20170E-04   -0.22400E-05 15655   0.413E-02    0.141E-02
DAV:   4    -0.644630804350E+02    0.62695E-05   -0.10981E-05 10824   0.303E-02    0.458E-03
DAV:   5    -0.644630769904E+02    0.34446E-05   -0.41472E-06 10824   0.216E-02    0.185E-03
DAV:   6    -0.644630757878E+02    0.12026E-05   -0.15221E-06 10824   0.130E-02
   6 F= -.64463076E+02 E0= -.64463076E+02  d E =-.428256E+01  mag=     0.0000
       N       E                     dE             d eps       ncg     rms          rms(c)
DAV:   1    -0.645270941480E+02   -0.64017E-01   -0.16001E+01 17098   0.272E+01    0.803E-01
DAV:   2    -0.645721566473E+02   -0.45062E-01   -0.24142E-01 20122   0.369E+00    0.501E-01
DAV:   3    -0.645710915303E+02    0.10651E-02   -0.69641E-03 19520   0.626E-01    0.271E-01
DAV:   4    -0.645710057311E+02    0.85799E-04   -0.30210E-03 19562   0.433E-01    0.704E-02
DAV:   5    -0.645711993684E+02   -0.19364E-03   -0.65820E-04 19926   0.158E-01    0.387E-02
DAV:   6    -0.645712136278E+02   -0.14259E-04   -0.22128E-05 18987   0.364E-02    0.235E-02
DAV:   7    -0.645712266779E+02   -0.13050E-04   -0.18462E-05 12286   0.374E-02    0.503E-03
DAV:   8    -0.645712289137E+02   -0.22358E-05   -0.36191E-06 11510   0.168E-02
   7 F= -.64571229E+02 E0= -.64571229E+02  d E =-.108153E+00  mag=     0.0000
       N       E                     dE             d eps       ncg     rms          rms(c)
DAV:   1    -0.645720856339E+02   -0.85896E-03   -0.16240E-01 17574   0.278E+00    0.828E-02
DAV:   2    -0.645725053285E+02   -0.41969E-03   -0.22828E-03 19618   0.377E-01    0.506E-02
DAV:   3    -0.645725043175E+02    0.10110E-05   -0.74509E-05 19408   0.672E-02    0.255E-02
DAV:   4    -0.645725144755E+02   -0.10158E-04   -0.34461E-05 17028   0.467E-02    0.808E-03
DAV:   5    -0.645725225957E+02   -0.81202E-05   -0.11715E-05 10696   0.350E-02    0.273E-03
DAV:   6    -0.645725169970E+02    0.55987E-05   -0.72684E-06 10856   0.297E-02
   8 F= -.64572517E+02 E0= -.64572517E+02  d E =-.109441E+00  mag=    -0.0000
       N       E                     dE             d eps       ncg     rms          rms(c)
DAV:   1    -0.646595739592E+02   -0.87051E-01   -0.37515E+00 18834   0.156E+01    0.191E+00
DAV:   2    -0.646242478888E+02    0.35326E-01   -0.28942E-01 18134   0.400E+00    0.699E-01
DAV:   3    -0.646178621870E+02    0.63857E-02   -0.18121E-02 20640   0.100E+00    0.334E-01
DAV:   4    -0.646168591578E+02    0.10030E-02   -0.44166E-03 17546   0.530E-01    0.120E-01
DAV:   5    -0.646169527830E+02   -0.93625E-04   -0.97859E-04 17322   0.262E-01    0.371E-02
DAV:   6    -0.646169443037E+02    0.84794E-05   -0.12348E-04 16622   0.104E-01    0.179E-02
DAV:   7    -0.646169878992E+02   -0.43596E-04   -0.80397E-05 16370   0.771E-02    0.125E-02
DAV:   8    -0.646169673897E+02    0.20510E-04   -0.41416E-05 15874   0.718E-02    0.358E-03
DAV:   9    -0.646169845177E+02   -0.17128E-04   -0.25778E-05 14976   0.573E-02    0.194E-03
DAV:  10    -0.646169518445E+02    0.32673E-04   -0.96808E-06 12466   0.364E-02    0.124E-03
DAV:  11    -0.646169512806E+02    0.56392E-06   -0.28733E-07 13148   0.495E-03
   9 F= -.64616951E+02 E0= -.64616951E+02  d E =-.444343E-01  mag=     0.0000
       N       E                     dE             d eps       ncg     rms          rms(c)
DAV:   1    -0.646279148209E+02   -0.10963E-01   -0.28833E-01 18834   0.434E+00    0.529E-01
DAV:   2    -0.646254066734E+02    0.25081E-02   -0.22491E-02 18162   0.112E+00    0.195E-01
DAV:   3    -0.646248677584E+02    0.53891E-03   -0.14317E-03 20626   0.281E-01    0.933E-02
DAV:   4    -0.646247457334E+02    0.12202E-03   -0.34445E-04 17280   0.151E-01    0.319E-02
DAV:   5    -0.646247315614E+02    0.14172E-04   -0.71662E-05 18687   0.704E-02    0.100E-02
DAV:   6    -0.646247300326E+02    0.15288E-05   -0.74083E-06 11580   0.243E-02
  10 F= -.64624730E+02 E0= -.64624730E+02  d E =-.522130E-01  mag=     0.0000
       N       E                     dE             d eps       ncg     rms          rms(c)
DAV:   1    -0.646837343960E+02   -0.59003E-01   -0.21925E+00 19926   0.121E+01    0.162E+00
DAV:   2    -0.646441651335E+02    0.39569E-01   -0.15804E-01 16202   0.307E+00    0.339E-01
DAV:   3    -0.646428762065E+02    0.12889E-02   -0.96321E-03 19961   0.713E-01    0.115E-01
DAV:   4    -0.646428188083E+02    0.57398E-04   -0.12315E-03 18778   0.297E-01    0.727E-02
DAV:   5    -0.646428413804E+02   -0.22572E-04   -0.41401E-04 18498   0.162E-01    0.231E-02
DAV:   6    -0.646428877707E+02   -0.46390E-04   -0.58306E-05 17196   0.595E-02    0.143E-02
DAV:   7    -0.646428868855E+02    0.88514E-06   -0.12605E-05 11552   0.320E-02
  11 F= -.64642887E+02 E0= -.64642887E+02  d E =-.181569E-01  mag=    -0.0000
       N       E                     dE             d eps       ncg     rms          rms(c)
DAV:   1    -0.646429103204E+02   -0.22550E-04   -0.77893E-04 16664   0.228E-01    0.313E-02
DAV:   2    -0.646428980632E+02    0.12257E-04   -0.60075E-05 16356   0.619E-02    0.721E-03
DAV:   3    -0.646428949116E+02    0.31517E-05   -0.45049E-06 10824   0.205E-02    0.248E-03
DAV:   4    -0.646428931305E+02    0.17811E-05   -0.24392E-06 10656   0.176E-02    0.954E-04
DAV:   5    -0.646428945207E+02   -0.13902E-05   -0.38649E-06 10656   0.227E-02    0.598E-04
DAV:   6    -0.646428892834E+02    0.52372E-05   -0.19924E-06 10656   0.156E-02
  12 F= -.64642889E+02 E0= -.64642889E+02  d E =-.181593E-01  mag=    -0.0000
       N       E                     dE             d eps       ncg     rms          rms(c)
DAV:   1    -0.646631485607E+02   -0.20254E-01   -0.19231E+00 15824   0.102E+01    0.834E-01
DAV:   2    -0.646544844357E+02    0.86641E-02   -0.74374E-02 19884   0.210E+00    0.227E-01
DAV:   3    -0.646536960678E+02    0.78837E-03   -0.35043E-03 18218   0.442E-01    0.961E-02
DAV:   4    -0.646536174052E+02    0.78663E-04   -0.55605E-04 20514   0.212E-01    0.432E-02
DAV:   5    -0.646536318009E+02   -0.14396E-04   -0.13012E-04 19268   0.927E-02    0.162E-02
DAV:   6    -0.646536436640E+02   -0.11863E-04   -0.16237E-05 12280   0.311E-02    0.889E-03
DAV:   7    -0.646536442594E+02   -0.59539E-06   -0.76107E-06 11468   0.275E-02
  13 F= -.64653644E+02 E0= -.64653644E+02  d E =-.107550E-01  mag=    -0.0000
       N       E                     dE             d eps       ncg     rms          rms(c)
DAV:   1    -0.647543761554E+02   -0.10073E+00   -0.16028E+01 15824   0.295E+01    0.244E+00
DAV:   2    -0.646723283323E+02    0.82048E-01   -0.63834E-01 20388   0.604E+00    0.656E-01
DAV:   3    -0.646659124196E+02    0.64159E-02   -0.27876E-02 19072   0.129E+00    0.290E-01
DAV:   4    -0.646648600539E+02    0.10524E-02   -0.54507E-03 20528   0.659E-01    0.128E-01
DAV:   5    -0.646648548813E+02    0.51726E-05   -0.12486E-03 19604   0.295E-01    0.482E-02
DAV:   6    -0.646649082989E+02   -0.53418E-04   -0.19331E-04 17721   0.994E-02    0.294E-02
DAV:   7    -0.646648990403E+02    0.92586E-05   -0.11555E-04 18078   0.902E-02    0.144E-02
DAV:   8    -0.646649023236E+02   -0.32833E-05   -0.15022E-05 11758   0.341E-02
  14 F= -.64664902E+02 E0= -.64664902E+02  d E =-.220130E-01  mag=     0.0000
       N       E                     dE             d eps       ncg     rms          rms(c)
DAV:   1    -0.646702824317E+02   -0.53834E-02   -0.44204E-01 15852   0.499E+00    0.379E-01
DAV:   2    -0.646690892663E+02    0.11932E-02   -0.17844E-02 16720   0.105E+00    0.997E-02
DAV:   3    -0.646689215899E+02    0.16768E-03   -0.68210E-04 20262   0.201E-01    0.404E-02
DAV:   4    -0.646689086420E+02    0.12948E-04   -0.10372E-04 19086   0.904E-02    0.190E-02
DAV:   5    -0.646689124003E+02   -0.37582E-05   -0.21861E-05 15823   0.385E-02    0.697E-03
DAV:   6    -0.646689161796E+02   -0.37793E-05   -0.41791E-06 11384   0.164E-02
  15 F= -.64668916E+02 E0= -.64668916E+02  d E =-.401386E-02  mag=     0.0000
       N       E                     dE             d eps       ncg     rms          rms(c)
DAV:   1    -0.646742466514E+02   -0.53343E-02   -0.96777E-01 15824   0.739E+00    0.562E-01
DAV:   2    -0.646713836360E+02    0.28630E-02   -0.38904E-02 17112   0.154E+00    0.146E-01
DAV:   3    -0.646710442017E+02    0.33943E-03   -0.14796E-03 19968   0.298E-01    0.603E-02
DAV:   4    -0.646710125343E+02    0.31667E-04   -0.23364E-04 19345   0.136E-01    0.281E-02
DAV:   5    -0.646710169517E+02   -0.44174E-05   -0.49441E-05 17644   0.585E-02    0.107E-02
DAV:   6    -0.646710227081E+02   -0.57564E-05   -0.88129E-06 11671   0.238E-02
  16 F= -.64671023E+02 E0= -.64671023E+02  d E =-.612038E-02  mag=    -0.0000
       N       E                     dE             d eps       ncg     rms          rms(c)
DAV:   1    -0.646710261530E+02   -0.92013E-05   -0.10219E-03 16496   0.242E-01    0.175E-02
DAV:   2    -0.646710256663E+02    0.48665E-06   -0.43695E-05 16496   0.550E-02    0.569E-03
DAV:   3    -0.646710258134E+02   -0.14709E-06   -0.26501E-06 10992   0.178E-02    0.248E-03
DAV:   4    -0.646710271950E+02   -0.13816E-05   -0.22247E-06 10740   0.172E-02    0.868E-04
DAV:   5    -0.646710281369E+02   -0.94185E-06   -0.31697E-06 10656   0.218E-02    0.561E-04
DAV:   6    -0.646710247143E+02    0.34226E-05   -0.13005E-06 10656   0.133E-02
  17 F= -.64671025E+02 E0= -.64671025E+02  d E =-.612239E-02  mag=    -0.0000
       N       E                     dE             d eps       ncg     rms          rms(c)
DAV:   1    -0.646710255630E+02    0.25739E-05   -0.13484E-04 16496   0.873E-02    0.659E-03
DAV:   2    -0.646710242974E+02    0.12656E-05   -0.51109E-06  8752   0.186E-02    0.186E-03
DAV:   3    -0.646710239605E+02    0.33691E-06   -0.61630E-07  8416   0.598E-03    0.711E-04
DAV:   4    -0.646710240281E+02   -0.67639E-07   -0.86916E-08  8416   0.265E-03    0.273E-04
DAV:   5    -0.646710240769E+02   -0.48751E-07   -0.25181E-08  8416   0.143E-03    0.169E-04
DAV:   6    -0.646710241625E+02   -0.85642E-07   -0.22752E-08  8416   0.165E-03
  18 F= -.64671024E+02 E0= -.64671024E+02  d E =-.612184E-02  mag=     0.0000
       N       E                     dE             d eps       ncg     rms          rms(c)
DAV:   1    -0.646713289428E+02   -0.30487E-03   -0.12874E-02 17448   0.855E-01    0.723E-02
DAV:   2    -0.646712788206E+02    0.50122E-04   -0.54132E-04 19044   0.187E-01    0.215E-02
DAV:   3    -0.646712704993E+02    0.83212E-05   -0.29252E-05 19154   0.408E-02    0.910E-03
DAV:   4    -0.646712654824E+02    0.50169E-05   -0.40516E-06  8290   0.193E-02    0.370E-03
DAV:   5    -0.646712627998E+02    0.26827E-05   -0.93502E-07  8164   0.932E-03    0.122E-03
DAV:   6    -0.646712621058E+02    0.69398E-06   -0.14898E-07  8164   0.333E-03
  19 F= -.64671262E+02 E0= -.64671262E+02  d E =-.237943E-03  mag=     0.0000
       N       E                     dE             d eps       ncg     rms          rms(c)
DAV:   1    -0.646721458781E+02   -0.88308E-03   -0.11599E-01 18008   0.257E+00    0.217E-01
DAV:   2    -0.646716727942E+02    0.47308E-03   -0.48746E-03 18484   0.563E-01    0.647E-02
DAV:   3    -0.646716048351E+02    0.67959E-04   -0.26544E-04 19534   0.122E-01    0.272E-02
DAV:   4    -0.646715852643E+02    0.19571E-04   -0.40210E-05 19821   0.572E-02    0.121E-02
DAV:   5    -0.646715771227E+02    0.81416E-05   -0.85418E-06 11209   0.258E-02    0.412E-03
DAV:   6    -0.646715748144E+02    0.23083E-05   -0.19388E-06 10586   0.108E-02
  20 F= -.64671575E+02 E0= -.64671575E+02  d E =-.550652E-03  mag=     0.0000
