       N       E                     dE             d eps       ncg     rms          rms(c)
DAV:   1     0.750709612290E+03    0.75071E+03   -0.30333E+04 22907   0.222E+03
DAV:   2     0.299610053177E+02   -0.72075E+03   -0.70428E+03 25547   0.625E+02
DAV:   3    -0.621947043881E+02   -0.92156E+02   -0.91093E+02 24637   0.221E+02
DAV:   4    -0.657435967963E+02   -0.35489E+01   -0.35376E+01 27393   0.468E+01
DAV:   5    -0.658193341161E+02   -0.75737E-01   -0.75694E-01 26049   0.695E+00    0.217E+00
DAV:   6    -0.546572503608E+02    0.11162E+02   -0.36953E+00 25797   0.141E+01    0.202E+00
DAV:   7    -0.546049033788E+02    0.52347E-01   -0.12355E-01 33169   0.352E+00    0.119E+00
DAV:   8    -0.545807888839E+02    0.24114E-01   -0.47832E-02 31021   0.162E+00    0.501E-01
DAV:   9    -0.545792587638E+02    0.15301E-02   -0.28658E-03 28092   0.433E-01    0.436E-01
DAV:  10    -0.545761596117E+02    0.30992E-02   -0.34423E-03 29140   0.439E-01    0.247E-01
DAV:  11    -0.545742807076E+02    0.18789E-02   -0.55606E-03 29299   0.537E-01    0.143E-02
DAV:  12    -0.545741797013E+02    0.10101E-03   -0.18138E-04 27950   0.116E-01    0.122E-02
DAV:  13    -0.545741946361E+02   -0.14935E-04   -0.29116E-06 17265   0.163E-02    0.978E-03
DAV:  14    -0.545742021919E+02   -0.75557E-05   -0.46525E-06 14451   0.169E-02
   1 F= -.54574202E+02 E0= -.54574202E+02  d E =-.545742E+02  mag=     0.0000
