       N       E                     dE             d eps       ncg     rms          rms(c)
DAV:   1     0.100849815603E+04    0.10085E+04   -0.65166E+04 37984   0.156E+03
DAV:   2    -0.865617611909E+02   -0.10951E+04   -0.10316E+04 39776   0.408E+02
DAV:   3    -0.199348473718E+03   -0.11279E+03   -0.11059E+03 40168   0.143E+02
DAV:   4    -0.201935857552E+03   -0.25874E+01   -0.25742E+01 41216   0.230E+01
DAV:   5    -0.201982278724E+03   -0.46421E-01   -0.46382E-01 43168   0.291E+00    0.620E+00
DAV:   6    -0.164614355835E+03    0.37368E+02   -0.10944E+01 39480   0.145E+01    0.836E+00
DAV:   7    -0.164474089692E+03    0.14027E+00   -0.26284E-01 39824   0.260E+00    0.366E+00
DAV:   8    -0.164408193820E+03    0.65896E-01   -0.88804E-02 41360   0.144E+00    0.201E+00
DAV:   9    -0.164393499047E+03    0.14695E-01   -0.75790E-03 39800   0.414E-01    0.173E+00
DAV:  10    -0.164377090139E+03    0.16409E-01   -0.13552E-02 41408   0.560E-01    0.115E+00
DAV:  11    -0.164371689823E+03    0.54003E-02   -0.33359E-03 39816   0.257E-01    0.942E-01
DAV:  12    -0.164369201844E+03    0.24880E-02   -0.84082E-04 41440   0.142E-01    0.782E-01
DAV:  13    -0.164367211684E+03    0.19902E-02   -0.83485E-04 40808   0.133E-01    0.633E-01
DAV:  14    -0.164364298762E+03    0.29129E-02   -0.38136E-03 41496   0.287E-01    0.302E-01
DAV:  15    -0.164363233717E+03    0.10650E-02   -0.23245E-03 41320   0.223E-01    0.630E-02
DAV:  16    -0.164363154346E+03    0.79372E-04   -0.11952E-04 39904   0.505E-02    0.356E-02
DAV:  17    -0.164363139195E+03    0.15151E-04   -0.22127E-06 23864   0.752E-03    0.287E-02
DAV:  18    -0.164363130582E+03    0.86130E-05   -0.12480E-06 22496   0.555E-03
   1 F= -.16436313E+03 E0= -.16436313E+03  d E =-.164363E+03  mag=    -0.0000
       N       E                     dE             d eps       ncg     rms          rms(c)
DAV:   1    -0.164364139796E+03   -0.10006E-02   -0.23770E-02 38648   0.524E-01    0.540E-02
DAV:   2    -0.164364241163E+03   -0.10137E-03   -0.65829E-04 39232   0.114E-01    0.537E-02
DAV:   3    -0.164364238277E+03    0.28860E-05   -0.36296E-05 38840   0.377E-02    0.289E-02
DAV:   4    -0.164364242517E+03   -0.42401E-05   -0.14012E-05 25664   0.239E-02    0.155E-02
DAV:   5    -0.164364255116E+03   -0.12599E-04   -0.64169E-06 24512   0.182E-02    0.731E-03
DAV:   6    -0.164364260802E+03   -0.56858E-05   -0.17202E-06 22016   0.853E-03
   2 F= -.16436426E+03 E0= -.16436426E+03  d E =-.113022E-02  mag=    -0.0000
       N       E                     dE             d eps       ncg     rms          rms(c)
DAV:   1    -0.164364367325E+03   -0.11221E-03   -0.63010E-03 38504   0.269E-01    0.289E-02
DAV:   2    -0.164364405139E+03   -0.37814E-04   -0.17179E-04 39128   0.598E-02    0.290E-02
DAV:   3    -0.164364400556E+03    0.45830E-05   -0.84380E-06 25752   0.185E-02    0.147E-02
DAV:   4    -0.164364398638E+03    0.19179E-05   -0.60374E-06 23592   0.147E-02    0.837E-03
DAV:   5    -0.164364405324E+03   -0.66861E-05   -0.16562E-06 21944   0.892E-03    0.367E-03
DAV:   6    -0.164364408401E+03   -0.30763E-05   -0.63876E-07 20304   0.468E-03
   3 F= -.16436441E+03 E0= -.16436441E+03  d E =-.127782E-02  mag=    -0.0000
       N       E                     dE             d eps       ncg     rms          rms(c)
DAV:   1    -0.164365104271E+03   -0.69895E-03   -0.10016E-02 37544   0.320E-01    0.284E-02
DAV:   2    -0.164365148595E+03   -0.44324E-04   -0.11723E-04 38976   0.449E-02    0.190E-02
DAV:   3    -0.164365159282E+03   -0.10687E-04   -0.59992E-06 25752   0.161E-02    0.164E-02
DAV:   4    -0.164365161075E+03   -0.17927E-05   -0.26673E-06 23480   0.786E-03    0.503E-03
DAV:   5    -0.164365156873E+03    0.42021E-05   -0.40624E-07 21456   0.567E-03    0.205E-03
DAV:   6    -0.164365156505E+03    0.36768E-06   -0.50369E-07 20248   0.392E-03
   4 F= -.16436516E+03 E0= -.16436516E+03  d E =-.748105E-03  mag=    -0.0000
       N       E                     dE             d eps       ncg     rms          rms(c)
DAV:   1    -0.164366109486E+03   -0.95261E-03   -0.90119E-02 37496   0.963E-01    0.854E-02
DAV:   2    -0.164366485138E+03   -0.37565E-03   -0.10632E-03 39000   0.138E-01    0.598E-02
DAV:   3    -0.164366551447E+03   -0.66309E-04   -0.52415E-05 38696   0.457E-02    0.493E-02
DAV:   4    -0.164366578287E+03   -0.26839E-04   -0.20711E-05 30320   0.218E-02    0.182E-02
DAV:   5    -0.164366569993E+03    0.82937E-05   -0.53242E-06 25376   0.203E-02    0.587E-03
DAV:   6    -0.164366569143E+03    0.85012E-06   -0.48061E-06 22576   0.119E-02
   5 F= -.16436657E+03 E0= -.16436657E+03  d E =-.216074E-02  mag=    -0.0000
       N       E                     dE             d eps       ncg     rms          rms(c)
DAV:   1    -0.164363727128E+03    0.28429E-02   -0.35997E-01 37448   0.193E+00    0.172E-01
DAV:   2    -0.164365192648E+03   -0.14655E-02   -0.42379E-03 40808   0.274E-01    0.122E-01
DAV:   3    -0.164365427625E+03   -0.23498E-03   -0.21617E-04 40592   0.922E-02    0.988E-02
DAV:   4    -0.164365547136E+03   -0.11951E-03   -0.88708E-05 37880   0.442E-02    0.382E-02
DAV:   5    -0.164365537739E+03    0.93974E-05   -0.21720E-05 32112   0.401E-02    0.120E-02
DAV:   6    -0.164365539593E+03   -0.18541E-05   -0.21634E-05 33008   0.236E-02
   6 F= -.16436554E+03 E0= -.16436554E+03  d E =-.113119E-02  mag=    -0.0000
       N       E                     dE             d eps       ncg     rms          rms(c)
DAV:   1    -0.164365973893E+03   -0.43615E-03   -0.17188E-01 37472   0.132E+00    0.118E-01
DAV:   2    -0.164366651544E+03   -0.67765E-03   -0.19999E-03 40760   0.189E-01    0.811E-02
DAV:   3    -0.164366742446E+03   -0.90902E-04   -0.11337E-04 38784   0.672E-02    0.684E-02
DAV:   4    -0.164366796585E+03   -0.54140E-04   -0.37188E-05 36104   0.285E-02    0.242E-02
DAV:   5    -0.164366815686E+03   -0.19101E-04   -0.88657E-06 27056   0.260E-02    0.855E-03
DAV:   6    -0.164366821422E+03   -0.57358E-05   -0.11531E-05 27888   0.170E-02
   7 F= -.16436682E+03 E0= -.16436682E+03  d E =-.241302E-02  mag=    -0.0000
       N       E                     dE             d eps       ncg     rms          rms(c)
DAV:   1    -0.164367384474E+03   -0.56879E-03   -0.16179E-02 37632   0.413E-01    0.360E-02
DAV:   2    -0.164367461167E+03   -0.76693E-04   -0.18825E-04 38920   0.566E-02    0.222E-02
DAV:   3    -0.164367469953E+03   -0.87861E-05   -0.13828E-05 30280   0.221E-02    0.121E-02
DAV:   4    -0.164367474844E+03   -0.48907E-05   -0.29355E-06 23360   0.842E-03    0.618E-03
DAV:   5    -0.164367473277E+03    0.15668E-05   -0.51770E-07 22088   0.453E-03    0.251E-03
DAV:   6    -0.164367473814E+03   -0.53673E-06   -0.83219E-07 20736   0.465E-03
   8 F= -.16436747E+03 E0= -.16436747E+03  d E =-.652392E-03  mag=    -0.0000
       N       E                     dE             d eps       ncg     rms          rms(c)
DAV:   1    -0.164367771672E+03   -0.29840E-03   -0.14559E-01 37608   0.124E+00    0.107E-01
DAV:   2    -0.164368386287E+03   -0.61461E-03   -0.16951E-03 39672   0.171E-01    0.676E-02
DAV:   3    -0.164368492774E+03   -0.10649E-03   -0.12297E-04 38648   0.648E-02    0.428E-02
DAV:   4    -0.164368524629E+03   -0.31855E-04   -0.23990E-05 32664   0.222E-02    0.166E-02
DAV:   5    -0.164368524000E+03    0.62877E-06   -0.50196E-06 24352   0.154E-02    0.698E-03
DAV:   6    -0.164368523206E+03    0.79449E-06   -0.79586E-06 22912   0.134E-02
   9 F= -.16436852E+03 E0= -.16436852E+03  d E =-.170178E-02  mag=    -0.0000
       N       E                     dE             d eps       ncg     rms          rms(c)
DAV:   1    -0.164368523687E+03    0.31325E-06   -0.84656E-03 37776   0.300E-01    0.260E-02
DAV:   2    -0.164368565309E+03   -0.41622E-04   -0.97037E-05 38952   0.411E-02    0.162E-02
DAV:   3    -0.164368567079E+03   -0.17699E-05   -0.80426E-06 26336   0.168E-02    0.102E-02
DAV:   4    -0.164368571845E+03   -0.47665E-05   -0.18783E-06 22936   0.618E-03    0.443E-03
DAV:   5    -0.164368571476E+03    0.36876E-06   -0.27778E-07 21544   0.387E-03    0.207E-03
DAV:   6    -0.164368570731E+03    0.74529E-06   -0.67272E-07 20528   0.398E-03
  10 F= -.16436857E+03 E0= -.16436857E+03  d E =-.174931E-02  mag=    -0.0000
       N       E                     dE             d eps       ncg     rms          rms(c)
DAV:   1    -0.164368542999E+03    0.28477E-04   -0.37859E-02 38032   0.681E-01    0.597E-02
DAV:   2    -0.164368772308E+03   -0.22931E-03   -0.12184E-03 40008   0.132E-01    0.490E-02
DAV:   3    -0.164368768160E+03    0.41475E-05   -0.37086E-05 39728   0.349E-02    0.312E-02
DAV:   4    -0.164368778723E+03   -0.10563E-04   -0.41983E-05 36664   0.312E-02    0.174E-02
DAV:   5    -0.164368779611E+03   -0.88773E-06   -0.30226E-06 24544   0.962E-03    0.774E-03
DAV:   6    -0.164368778754E+03    0.85690E-06   -0.30637E-06 22736   0.108E-02
  11 F= -.16436878E+03 E0= -.16436878E+03  d E =-.208023E-03  mag=    -0.0000
       N       E                     dE             d eps       ncg     rms          rms(c)
DAV:   1    -0.164368848673E+03   -0.69062E-04   -0.49868E-03 37960   0.247E-01    0.218E-02
DAV:   2    -0.164368869266E+03   -0.20593E-04   -0.15617E-04 39112   0.483E-02    0.176E-02
DAV:   3    -0.164368871946E+03   -0.26800E-05   -0.44547E-06 24632   0.127E-02    0.113E-02
DAV:   4    -0.164368872604E+03   -0.65811E-06   -0.60005E-06 23080   0.120E-02    0.697E-03
DAV:   5    -0.164368873599E+03   -0.99444E-06   -0.78861E-07 20152   0.410E-03    0.300E-03
DAV:   6    -0.164368874378E+03   -0.77969E-06   -0.24623E-07 18784   0.377E-03
  12 F= -.16436887E+03 E0= -.16436887E+03  d E =-.303647E-03  mag=    -0.0000
