       N       E                     dE             d eps       ncg     rms          rms(c)
DAV:   1     0.291296197157E+04    0.29130E+04   -0.12910E+05 37144   0.199E+03
DAV:   2     0.926725950038E+02   -0.28203E+04   -0.26727E+04 36992   0.557E+02
DAV:   3    -0.301345815765E+03   -0.39402E+03   -0.35856E+03 36064   0.218E+02
DAV:   4    -0.319893964862E+03   -0.18548E+02   -0.18374E+02 36288   0.475E+01
DAV:   5    -0.320218742150E+03   -0.32478E+00   -0.32385E+00 40104   0.657E+00    0.948E+00
DAV:   6    -0.259575108415E+03    0.60644E+02   -0.23999E+01 36120   0.165E+01    0.129E+01
DAV:   7    -0.259357946891E+03    0.21716E+00   -0.51692E-01 36296   0.306E+00    0.569E+00
DAV:   8    -0.259243687332E+03    0.11426E+00   -0.18272E-01 36288   0.145E+00    0.287E+00
DAV:   9    -0.259224284643E+03    0.19403E-01   -0.97567E-03 38312   0.341E-01    0.256E+00
DAV:  10    -0.259200538755E+03    0.23746E-01   -0.18239E-02 36264   0.508E-01    0.183E+00
DAV:  11    -0.259193339863E+03    0.71989E-02   -0.34660E-03 36288   0.211E-01    0.161E+00
DAV:  12    -0.259183167754E+03    0.10172E-01   -0.85966E-03 36192   0.335E-01    0.111E+00
DAV:  13    -0.259177998235E+03    0.51695E-02   -0.49838E-03 36256   0.249E-01    0.768E-01
DAV:  14    -0.259175132502E+03    0.28657E-02   -0.32003E-03 36184   0.201E-01    0.462E-01
DAV:  15    -0.259173246094E+03    0.18864E-02   -0.40760E-03 36184   0.232E-01    0.111E-01
DAV:  16    -0.259173113372E+03    0.13272E-03   -0.22616E-04 39240   0.555E-02    0.773E-02
DAV:  17    -0.259173082819E+03    0.30553E-04   -0.23550E-06 20008   0.664E-03    0.663E-02
DAV:  18    -0.259173063602E+03    0.19217E-04   -0.10177E-06 19792   0.416E-03    0.600E-02
DAV:  19    -0.259173022010E+03    0.41592E-04   -0.58650E-06 19720   0.111E-02    0.279E-02
DAV:  20    -0.259172956019E+03    0.65992E-04   -0.37717E-06 19576   0.731E-03    0.796E-03
DAV:  21    -0.259172958090E+03   -0.20713E-05   -0.35073E-07 19392   0.244E-03
   1 F= -.25917296E+03 E0= -.25917296E+03  d E =-.259173E+03  mag=     0.0000
