       N       E                     dE             d eps       ncg     rms          rms(c)
DAV:   1     0.271385277727E+03    0.27139E+03   -0.16904E+04 87584   0.184E+03
DAV:   2    -0.209332891307E+02   -0.29232E+03   -0.27842E+03 85376   0.470E+02
DAV:   3    -0.353642362158E+02   -0.14431E+02   -0.14379E+02 91992   0.113E+02
DAV:   4    -0.355330640328E+02   -0.16883E+00   -0.16881E+00 90120   0.119E+01
DAV:   5    -0.355367949999E+02   -0.37310E-02   -0.37309E-02 92024   0.165E+00    0.314E+00
DAV:   6    -0.318485761976E+02    0.36882E+01   -0.14614E+00 87416   0.160E+01    0.561E+00
DAV:   7    -0.317921225798E+02    0.56454E-01   -0.10089E-01 86624   0.382E+00    0.155E+00
DAV:   8    -0.317879225497E+02    0.42000E-02   -0.89874E-03 91024   0.112E+00    0.109E+00
DAV:   9    -0.317864562200E+02    0.14663E-02   -0.18895E-03 89032   0.497E-01    0.790E-01
DAV:  10    -0.317851315141E+02    0.13247E-02   -0.12331E-03 86680   0.465E-01    0.541E-01
DAV:  11    -0.317839954090E+02    0.11361E-02   -0.12579E-03 86184   0.480E-01    0.288E-01
DAV:  12    -0.317838149053E+02    0.18050E-03   -0.24773E-04 88464   0.181E-01    0.194E-01
DAV:  13    -0.317837132147E+02    0.10169E-03   -0.88228E-05 87136   0.119E-01    0.128E-01
DAV:  14    -0.317836626987E+02    0.50516E-04   -0.28836E-05 79136   0.656E-02    0.933E-02
DAV:  15    -0.317835986757E+02    0.64023E-04   -0.83968E-05 85712   0.126E-01    0.283E-02
DAV:  16    -0.317835651381E+02    0.33538E-04   -0.14160E-05 66648   0.433E-02    0.751E-03
DAV:  17    -0.317835678914E+02   -0.27532E-05   -0.28734E-06 49288   0.164E-02
   1 F= -.31783568E+02 E0= -.31782345E+02  d E =-.317836E+02  mag=     6.0586
       N       E                     dE             d eps       ncg     rms          rms(c)
DAV:   1    -0.318380749496E+02   -0.54510E-01   -0.44942E-01 84912   0.103E+01    0.211E+00
DAV:   2    -0.317824605307E+02    0.55614E-01   -0.14699E-01 85784   0.578E+00    0.205E+00
DAV:   3    -0.317853270453E+02   -0.28665E-02   -0.95324E-03 85544   0.112E+00    0.633E-01
DAV:   4    -0.317842242997E+02    0.11027E-02   -0.77598E-04 88096   0.318E-01    0.165E-01
DAV:   5    -0.317834871433E+02    0.73716E-03   -0.81430E-04 87576   0.294E-01    0.711E-02
DAV:   6    -0.317837299652E+02   -0.24282E-03   -0.28469E-04 83848   0.142E-01    0.405E-02
DAV:   7    -0.317835893754E+02    0.14059E-03   -0.61481E-05 83680   0.761E-02    0.219E-02
DAV:   8    -0.317835106436E+02    0.78732E-04   -0.21947E-05 66488   0.802E-02    0.176E-02
DAV:   9    -0.317834985731E+02    0.12071E-04   -0.88598E-06 53168   0.584E-02    0.370E-03
DAV:  10    -0.317835088764E+02   -0.10303E-04   -0.22758E-06 47456   0.171E-02    0.252E-03
DAV:  11    -0.317834974845E+02    0.11392E-04   -0.10232E-06 42328   0.103E-02    0.164E-03
DAV:  12    -0.317834939822E+02    0.35023E-05   -0.35865E-07 42232   0.617E-03
   2 F= -.31783494E+02 E0= -.31782422E+02  d E =0.739092E-04  mag=     6.0788
